Title Card Required                                                     
SP        UB3LYP                                                      6-311G(d,p)         
Number of atoms                            I               16
Info1-9                                    I   N=           9
          23          23           0           0           0         110
           1          18        -502
Full Title                                 C   N=           2
Title Card Required     
Route                                      C   N=           4
#p ub3lyp/6-311g(d,p) nosymm density=current    
Charge                                     I                0
Multiplicity                               I                3
Number of electrons                        I               56
Number of alpha electrons                  I               29
Number of beta electrons                   I               27
Number of basis functions                  I              192
Number of independent functions            I              192
Number of point charges in /Mol/           I                0
Number of translation vectors              I                0
Atomic numbers                             I   N=          16
           1           1           1           1           1           1
           1           1           5           7           7           5
           7           5           5           7
Nuclear charges                            R   N=          16
  1.00000000E+00  1.00000000E+00  1.00000000E+00  1.00000000E+00  1.00000000E+00
  1.00000000E+00  1.00000000E+00  1.00000000E+00  5.00000000E+00  7.00000000E+00
  7.00000000E+00  5.00000000E+00  7.00000000E+00  5.00000000E+00  5.00000000E+00
  7.00000000E+00
Current cartesian coordinates              R   N=          48
  4.18371191E+00  4.18371191E+00  0.00000000E+00  0.00000000E+00  5.35593926E+00
  0.00000000E+00 -4.18371191E+00  4.18371191E+00  0.00000000E+00 -5.35593926E+00
  0.00000000E+00  0.00000000E+00 -4.18371191E+00 -4.18371191E+00  0.00000000E+00
  0.00000000E+00 -5.35593926E+00  0.00000000E+00  4.18371191E+00 -4.18371191E+00
  0.00000000E+00  5.35593926E+00  0.00000000E+00  0.00000000E+00 -2.59040067E+00
  2.59040067E+00  0.00000000E+00  0.00000000E+00  3.43652365E+00  0.00000000E+00
 -3.43652365E+00  0.00000000E+00  0.00000000E+00 -2.59040067E+00 -2.59040067E+00
  0.00000000E+00  0.00000000E+00 -3.43652365E+00  0.00000000E+00  2.59040067E+00
 -2.59040067E+00  0.00000000E+00  2.59040067E+00  2.59040067E+00  0.00000000E+00
  3.43652365E+00  0.00000000E+00  0.00000000E+00
Number of symbols in /Mol/                 I                0
Force Field                                I                0
Atom Types                                 C   N=          16
                                                            
                                                            
                                                            
            
Int Atom Types                             I   N=          16
           0           0           0           0           0           0
           0           0           0           0           0           0
           0           0           0           0
MM charges                                 R   N=          16
  0.00000000E+00  0.00000000E+00  0.00000000E+00  0.00000000E+00  0.00000000E+00
  0.00000000E+00  0.00000000E+00  0.00000000E+00  0.00000000E+00  0.00000000E+00
  0.00000000E+00  0.00000000E+00  0.00000000E+00  0.00000000E+00  0.00000000E+00
  0.00000000E+00
Integer atomic weights                     I   N=          16
           1           1           1           1           1           1
           1           1          11          14          14          11
          14          11          11          14
Real atomic weights                        R   N=          16
  1.00782504E+00  1.00782504E+00  1.00782504E+00  1.00782504E+00  1.00782504E+00
  1.00782504E+00  1.00782504E+00  1.00782504E+00  1.10093053E+01  1.40030740E+01
  1.40030740E+01  1.10093053E+01  1.40030740E+01  1.10093053E+01  1.10093053E+01
  1.40030740E+01
Atom fragment info                         I   N=          16
           0           0           0           0           0           0
           0           0           0           0           0           0
           0           0           0           0
Atom residue num                           I   N=          16
           0           0           0           0           0           0
           0           0           0           0           0           0
           0           0           0           0
Nuclear spins                              I   N=          16
           1           1           1           1           1           1
           1           1           3           2           2           3
           2           3           3           2
Nuclear ZEff                               R   N=          16
 -1.00000000E+00 -1.00000000E+00 -1.00000000E+00 -1.00000000E+00 -1.00000000E+00
 -1.00000000E+00 -1.00000000E+00 -1.00000000E+00 -2.75000000E+00 -4.55000000E+00
 -4.55000000E+00 -2.75000000E+00 -4.55000000E+00 -2.75000000E+00 -2.75000000E+00
 -4.55000000E+00
Nuclear ZNuc                               R   N=          16
  1.00000000E+00  1.00000000E+00  1.00000000E+00  1.00000000E+00  1.00000000E+00
  1.00000000E+00  1.00000000E+00  1.00000000E+00  5.00000000E+00  7.00000000E+00
  7.00000000E+00  5.00000000E+00  7.00000000E+00  5.00000000E+00  5.00000000E+00
  7.00000000E+00
Nuclear QMom                               R   N=          16
  0.00000000E+00  0.00000000E+00  0.00000000E+00  0.00000000E+00  0.00000000E+00
  0.00000000E+00  0.00000000E+00  0.00000000E+00  4.05900000E+00  2.04400000E+00
  2.04400000E+00  4.05900000E+00  2.04400000E+00  4.05900000E+00  4.05900000E+00
  2.04400000E+00
Nuclear GFac                               R   N=          16
  2.79284600E+00  2.79284600E+00  2.79284600E+00  2.79284600E+00  2.79284600E+00
  2.79284600E+00  2.79284600E+00  2.79284600E+00  2.68863700E+00  4.03761000E-01
  4.03761000E-01  2.68863700E+00  4.03761000E-01  2.68863700E+00  2.68863700E+00
  4.03761000E-01
MicOpt                                     I   N=          16
          -1          -1          -1          -1          -1          -1
          -1          -1          -1          -1          -1          -1
          -1          -1          -1          -1
Number of residues                         I                0
Number of secondary structures             I                0
Number of contracted shells                I               72
Number of primitive shells                 I              144
Pure/Cartesian d shells                    I                0
Pure/Cartesian f shells                    I                0
Highest angular momentum                   I                2
Largest degree of contraction              I                6
Shell types                                I   N=          72
           0           0           0           1           0           0
           0           1           0           0           0           1
           0           0           0           1           0           0
           0           1           0           0           0           1
           0           0           0           1           0           0
           0           1           0          -1          -1          -1
          -2           0          -1          -1          -1          -2
           0          -1          -1          -1          -2           0
          -1          -1          -1          -2           0          -1
          -1          -1          -2           0          -1          -1
          -1          -2           0          -1          -1          -1
          -2           0          -1          -1          -1          -2
Number of primitives per shell             I   N=          72
           3           1           1           1           3           1
           1           1           3           1           1           1
           3           1           1           1           3           1
           1           1           3           1           1           1
           3           1           1           1           3           1
           1           1           6           3           1           1
           1           6           3           1           1           1
           6           3           1           1           1           6
           3           1           1           1           6           3
           1           1           1           6           3           1
           1           1           6           3           1           1
           1           6           3           1           1           1
Shell to atom map                          I   N=          72
           1           1           1           1           2           2
           2           2           3           3           3           3
           4           4           4           4           5           5
           5           5           6           6           6           6
           7           7           7           7           8           8
           8           8           9           9           9           9
           9          10          10          10          10          10
          11          11          11          11          11          12
          12          12          12          12          13          13
          13          13          13          14          14          14
          14          14          15          15          15          15
          15          16          16          16          16          16
Primitive exponents                        R   N=         144
  3.38650000E+01  5.09479000E+00  1.15879000E+00  3.25840000E-01  1.02741000E-01
  7.50000000E-01  3.38650000E+01  5.09479000E+00  1.15879000E+00  3.25840000E-01
  1.02741000E-01  7.50000000E-01  3.38650000E+01  5.09479000E+00  1.15879000E+00
  3.25840000E-01  1.02741000E-01  7.50000000E-01  3.38650000E+01  5.09479000E+00
  1.15879000E+00  3.25840000E-01  1.02741000E-01  7.50000000E-01  3.38650000E+01
  5.09479000E+00  1.15879000E+00  3.25840000E-01  1.02741000E-01  7.50000000E-01
  3.38650000E+01  5.09479000E+00  1.15879000E+00  3.25840000E-01  1.02741000E-01
  7.50000000E-01  3.38650000E+01  5.09479000E+00  1.15879000E+00  3.25840000E-01
  1.02741000E-01  7.50000000E-01  3.38650000E+01  5.09479000E+00  1.15879000E+00
  3.25840000E-01  1.02741000E-01  7.50000000E-01  2.85889000E+03  4.28140000E+02
  9.75282000E+01  2.79693000E+01  8.21577000E+00  1.11278000E+00  1.32415000E+01
  3.00166000E+00  9.12856000E-01  3.15454000E-01  9.88563000E-02  4.01000000E-01
  6.29348000E+03  9.49044000E+02  2.18776000E+02  6.36916000E+01  1.88282000E+01
  2.72023000E+00  3.06331000E+01  7.02614000E+00  2.11205000E+00  6.84009000E-01
  2.00878000E-01  9.13000000E-01  6.29348000E+03  9.49044000E+02  2.18776000E+02
  6.36916000E+01  1.88282000E+01  2.72023000E+00  3.06331000E+01  7.02614000E+00
  2.11205000E+00  6.84009000E-01  2.00878000E-01  9.13000000E-01  2.85889000E+03
  4.28140000E+02  9.75282000E+01  2.79693000E+01  8.21577000E+00  1.11278000E+00
  1.32415000E+01  3.00166000E+00  9.12856000E-01  3.15454000E-01  9.88563000E-02
  4.01000000E-01  6.29348000E+03  9.49044000E+02  2.18776000E+02  6.36916000E+01
  1.88282000E+01  2.72023000E+00  3.06331000E+01  7.02614000E+00  2.11205000E+00
  6.84009000E-01  2.00878000E-01  9.13000000E-01  2.85889000E+03  4.28140000E+02
  9.75282000E+01  2.79693000E+01  8.21577000E+00  1.11278000E+00  1.32415000E+01
  3.00166000E+00  9.12856000E-01  3.15454000E-01  9.88563000E-02  4.01000000E-01
  2.85889000E+03  4.28140000E+02  9.75282000E+01  2.79693000E+01  8.21577000E+00
  1.11278000E+00  1.32415000E+01  3.00166000E+00  9.12856000E-01  3.15454000E-01
  9.88563000E-02  4.01000000E-01  6.29348000E+03  9.49044000E+02  2.18776000E+02
  6.36916000E+01  1.88282000E+01  2.72023000E+00  3.06331000E+01  7.02614000E+00
  2.11205000E+00  6.84009000E-01  2.00878000E-01  9.13000000E-01
Contraction coefficients                   R   N=         144
  2.54938145E-02  1.90373109E-01  8.52161486E-01  1.00000000E+00  1.00000000E+00
  1.00000000E+00  2.54938145E-02  1.90373109E-01  8.52161486E-01  1.00000000E+00
  1.00000000E+00  1.00000000E+00  2.54938145E-02  1.90373109E-01  8.52161486E-01
  1.00000000E+00  1.00000000E+00  1.00000000E+00  2.54938145E-02  1.90373109E-01
  8.52161486E-01  1.00000000E+00  1.00000000E+00  1.00000000E+00  2.54938145E-02
  1.90373109E-01  8.52161486E-01  1.00000000E+00  1.00000000E+00  1.00000000E+00
  2.54938145E-02  1.90373109E-01  8.52161486E-01  1.00000000E+00  1.00000000E+00
  1.00000000E+00  2.54938145E-02  1.90373109E-01  8.52161486E-01  1.00000000E+00
  1.00000000E+00  1.00000000E+00  2.54938145E-02  1.90373109E-01  8.52161486E-01
  1.00000000E+00  1.00000000E+00  1.00000000E+00  2.15374907E-03  1.65822928E-02
  8.21869644E-02  2.76617880E-01  6.29315727E-01  1.73769925E-01  1.17442942E-01
  9.18001549E-01 -2.65104870E-03  1.00000000E+00  1.00000000E+00  1.00000000E+00
  1.96978815E-03  1.49612859E-02  7.35005308E-02  2.48936766E-01  6.02459433E-01
  2.56201759E-01  1.11906080E-01  9.21666655E-01 -2.56919183E-03  1.00000000E+00
  1.00000000E+00  1.00000000E+00  1.96978815E-03  1.49612859E-02  7.35005308E-02
  2.48936766E-01  6.02459433E-01  2.56201759E-01  1.11906080E-01  9.21666655E-01
 -2.56919183E-03  1.00000000E+00  1.00000000E+00  1.00000000E+00  2.15374907E-03
  1.65822928E-02  8.21869644E-02  2.76617880E-01  6.29315727E-01  1.73769925E-01
  1.17442942E-01  9.18001549E-01 -2.65104870E-03  1.00000000E+00  1.00000000E+00
  1.00000000E+00  1.96978815E-03  1.49612859E-02  7.35005308E-02  2.48936766E-01
  6.02459433E-01  2.56201759E-01  1.11906080E-01  9.21666655E-01 -2.56919183E-03
  1.00000000E+00  1.00000000E+00  1.00000000E+00  2.15374907E-03  1.65822928E-02
  8.21869644E-02  2.76617880E-01  6.29315727E-01  1.73769925E-01  1.17442942E-01
  9.18001549E-01 -2.65104870E-03  1.00000000E+00  1.00000000E+00  1.00000000E+00
  2.15374907E-03  1.65822928E-02  8.21869644E-02  2.76617880E-01  6.29315727E-01
  1.73769925E-01  1.17442942E-01  9.18001549E-01 -2.65104870E-03  1.00000000E+00
  1.00000000E+00  1.00000000E+00  1.96978815E-03  1.49612859E-02  7.35005308E-02
  2.48936766E-01  6.02459433E-01  2.56201759E-01  1.11906080E-01  9.21666655E-01
 -2.56919183E-03  1.00000000E+00  1.00000000E+00  1.00000000E+00
P(S=P) Contraction coefficients            R   N=         144
  0.00000000E+00  0.00000000E+00  0.00000000E+00  0.00000000E+00  0.00000000E+00
  0.00000000E+00  0.00000000E+00  0.00000000E+00  0.00000000E+00  0.00000000E+00
  0.00000000E+00  0.00000000E+00  0.00000000E+00  0.00000000E+00  0.00000000E+00
  0.00000000E+00  0.00000000E+00  0.00000000E+00  0.00000000E+00  0.00000000E+00
  0.00000000E+00  0.00000000E+00  0.00000000E+00  0.00000000E+00  0.00000000E+00
  0.00000000E+00  0.00000000E+00  0.00000000E+00  0.00000000E+00  0.00000000E+00
  0.00000000E+00  0.00000000E+00  0.00000000E+00  0.00000000E+00  0.00000000E+00
  0.00000000E+00  0.00000000E+00  0.00000000E+00  0.00000000E+00  0.00000000E+00
  0.00000000E+00  0.00000000E+00  0.00000000E+00  0.00000000E+00  0.00000000E+00
  0.00000000E+00  0.00000000E+00  0.00000000E+00  0.00000000E+00  0.00000000E+00
  0.00000000E+00  0.00000000E+00  0.00000000E+00  0.00000000E+00  4.18099989E-02
  2.36574994E-01  8.16213978E-01  1.00000000E+00  1.00000000E+00  0.00000000E+00
  0.00000000E+00  0.00000000E+00  0.00000000E+00  0.00000000E+00  0.00000000E+00
  0.00000000E+00  3.83119186E-02  2.37403116E-01  8.17592398E-01  1.00000000E+00
  1.00000000E+00  0.00000000E+00  0.00000000E+00  0.00000000E+00  0.00000000E+00
  0.00000000E+00  0.00000000E+00  0.00000000E+00  3.83119186E-02  2.37403116E-01
  8.17592398E-01  1.00000000E+00  1.00000000E+00  0.00000000E+00  0.00000000E+00
  0.00000000E+00  0.00000000E+00  0.00000000E+00  0.00000000E+00  0.00000000E+00
  4.18099989E-02  2.36574994E-01  8.16213978E-01  1.00000000E+00  1.00000000E+00
  0.00000000E+00  0.00000000E+00  0.00000000E+00  0.00000000E+00  0.00000000E+00
  0.00000000E+00  0.00000000E+00  3.83119186E-02  2.37403116E-01  8.17592398E-01
  1.00000000E+00  1.00000000E+00  0.00000000E+00  0.00000000E+00  0.00000000E+00
  0.00000000E+00  0.00000000E+00  0.00000000E+00  0.00000000E+00  4.18099989E-02
  2.36574994E-01  8.16213978E-01  1.00000000E+00  1.00000000E+00  0.00000000E+00
  0.00000000E+00  0.00000000E+00  0.00000000E+00  0.00000000E+00  0.00000000E+00
  0.00000000E+00  4.18099989E-02  2.36574994E-01  8.16213978E-01  1.00000000E+00
  1.00000000E+00  0.00000000E+00  0.00000000E+00  0.00000000E+00  0.00000000E+00
  0.00000000E+00  0.00000000E+00  0.00000000E+00  3.83119186E-02  2.37403116E-01
  8.17592398E-01  1.00000000E+00  1.00000000E+00  0.00000000E+00
Coordinates of each shell                  R   N=         216
  4.18371191E+00  4.18371191E+00  0.00000000E+00  4.18371191E+00  4.18371191E+00
  0.00000000E+00  4.18371191E+00  4.18371191E+00  0.00000000E+00  4.18371191E+00
  4.18371191E+00  0.00000000E+00  0.00000000E+00  5.35593926E+00  0.00000000E+00
  0.00000000E+00  5.35593926E+00  0.00000000E+00  0.00000000E+00  5.35593926E+00
  0.00000000E+00  0.00000000E+00  5.35593926E+00  0.00000000E+00 -4.18371191E+00
  4.18371191E+00  0.00000000E+00 -4.18371191E+00  4.18371191E+00  0.00000000E+00
 -4.18371191E+00  4.18371191E+00  0.00000000E+00 -4.18371191E+00  4.18371191E+00
  0.00000000E+00 -5.35593926E+00  0.00000000E+00  0.00000000E+00 -5.35593926E+00
  0.00000000E+00  0.00000000E+00 -5.35593926E+00  0.00000000E+00  0.00000000E+00
 -5.35593926E+00  0.00000000E+00  0.00000000E+00 -4.18371191E+00 -4.18371191E+00
  0.00000000E+00 -4.18371191E+00 -4.18371191E+00  0.00000000E+00 -4.18371191E+00
 -4.18371191E+00  0.00000000E+00 -4.18371191E+00 -4.18371191E+00  0.00000000E+00
  0.00000000E+00 -5.35593926E+00  0.00000000E+00  0.00000000E+00 -5.35593926E+00
  0.00000000E+00  0.00000000E+00 -5.35593926E+00  0.00000000E+00  0.00000000E+00
 -5.35593926E+00  0.00000000E+00  4.18371191E+00 -4.18371191E+00  0.00000000E+00
  4.18371191E+00 -4.18371191E+00  0.00000000E+00  4.18371191E+00 -4.18371191E+00
  0.00000000E+00  4.18371191E+00 -4.18371191E+00  0.00000000E+00  5.35593926E+00
  0.00000000E+00  0.00000000E+00  5.35593926E+00  0.00000000E+00  0.00000000E+00
  5.35593926E+00  0.00000000E+00  0.00000000E+00  5.35593926E+00  0.00000000E+00
  0.00000000E+00 -2.59040067E+00  2.59040067E+00  0.00000000E+00 -2.59040067E+00
  2.59040067E+00  0.00000000E+00 -2.59040067E+00  2.59040067E+00  0.00000000E+00
 -2.59040067E+00  2.59040067E+00  0.00000000E+00 -2.59040067E+00  2.59040067E+00
  0.00000000E+00  0.00000000E+00  3.43652365E+00  0.00000000E+00  0.00000000E+00
  3.43652365E+00  0.00000000E+00  0.00000000E+00  3.43652365E+00  0.00000000E+00
  0.00000000E+00  3.43652365E+00  0.00000000E+00  0.00000000E+00  3.43652365E+00
  0.00000000E+00 -3.43652365E+00  0.00000000E+00  0.00000000E+00 -3.43652365E+00
  0.00000000E+00  0.00000000E+00 -3.43652365E+00  0.00000000E+00  0.00000000E+00
 -3.43652365E+00  0.00000000E+00  0.00000000E+00 -3.43652365E+00  0.00000000E+00
  0.00000000E+00 -2.59040067E+00 -2.59040067E+00  0.00000000E+00 -2.59040067E+00
 -2.59040067E+00  0.00000000E+00 -2.59040067E+00 -2.59040067E+00  0.00000000E+00
 -2.59040067E+00 -2.59040067E+00  0.00000000E+00 -2.59040067E+00 -2.59040067E+00
  0.00000000E+00  0.00000000E+00 -3.43652365E+00  0.00000000E+00  0.00000000E+00
 -3.43652365E+00  0.00000000E+00  0.00000000E+00 -3.43652365E+00  0.00000000E+00
  0.00000000E+00 -3.43652365E+00  0.00000000E+00  0.00000000E+00 -3.43652365E+00
  0.00000000E+00  2.59040067E+00 -2.59040067E+00  0.00000000E+00  2.59040067E+00
 -2.59040067E+00  0.00000000E+00  2.59040067E+00 -2.59040067E+00  0.00000000E+00
  2.59040067E+00 -2.59040067E+00  0.00000000E+00  2.59040067E+00 -2.59040067E+00
  0.00000000E+00  2.59040067E+00  2.59040067E+00  0.00000000E+00  2.59040067E+00
  2.59040067E+00  0.00000000E+00  2.59040067E+00  2.59040067E+00  0.00000000E+00
  2.59040067E+00  2.59040067E+00  0.00000000E+00  2.59040067E+00  2.59040067E+00
  0.00000000E+00  3.43652365E+00  0.00000000E+00  0.00000000E+00  3.43652365E+00
  0.00000000E+00  0.00000000E+00  3.43652365E+00  0.00000000E+00  0.00000000E+00
  3.43652365E+00  0.00000000E+00  0.00000000E+00  3.43652365E+00  0.00000000E+00
  0.00000000E+00
Num ILSW                                   I              100
ILSW                                       I   N=         100
           1           0           0           0           2           0
           0           0           0           0         402          -1
           5           0           0           0           0           0
           0           0           0           0           0           0
           1           1           0           0           0           0
           0           0      100000           0          -1           0
           0           0           0           0           0           0
           0           0           0           1           0           0
           0 -2000000000           1           0           0           0
           0           0           4          52           0           0
           0           0           5           0           0           0
           0           0           0          16           0           1
           0           0           0           0           0           0
           0           0           0           0           0           0
           0           0           0           0           0           0
           0           0           0           0           0           0
           0           0           0           0
Num RLSW                                   I               52
RLSW                                       R   N=          52
  8.00000000E-01  7.20000000E-01  1.00000000E+00  8.10000000E-01  2.00000000E-01
  0.00000000E+00  0.00000000E+00  1.00000000E+00  0.00000000E+00  0.00000000E+00
  0.00000000E+00  0.00000000E+00  1.00000000E+00  0.00000000E+00  0.00000000E+00
  0.00000000E+00  0.00000000E+00  1.00000000E+00  0.00000000E+00  0.00000000E+00
  0.00000000E+00  0.00000000E+00  1.00000000E+00  0.00000000E+00  0.00000000E+00
  0.00000000E+00  0.00000000E+00  1.00000000E+00  0.00000000E+00  0.00000000E+00
  0.00000000E+00  0.00000000E+00  1.00000000E+00  0.00000000E+00  0.00000000E+00
  0.00000000E+00  0.00000000E+00  0.00000000E+00  1.00000000E+00  1.00000000E+00
  0.00000000E+00  1.00000000E+00  0.00000000E+00  0.00000000E+00  0.00000000E+00
  0.00000000E+00  0.00000000E+00  0.00000000E+00  0.00000000E+00  0.00000000E+00
  0.00000000E+00  0.00000000E+00
MxBond                                     I                3
NBond                                      I   N=          16
           1           1           1           1           1           1
           1           1           3           3           3           3
           3           3           3           3
IBond                                      I   N=          48
          15           0           0          10           0           0
           9           0           0          11           0           0
          12           0           0          13           0           0
          14           0           0          16           0           0
           3          10          11           2           9          15
           4           9          12           5          11          13
           6          12          14           7          13          16
           1          10          16           8          14          15
RBond                                      R   N=          48
  1.00000000E+00  0.00000000E+00  0.00000000E+00  1.00000000E+00  0.00000000E+00
  0.00000000E+00  1.00000000E+00  0.00000000E+00  0.00000000E+00  1.00000000E+00
  0.00000000E+00  0.00000000E+00  1.00000000E+00  0.00000000E+00  0.00000000E+00
  1.00000000E+00  0.00000000E+00  0.00000000E+00  1.00000000E+00  0.00000000E+00
  0.00000000E+00  1.00000000E+00  0.00000000E+00  0.00000000E+00  1.00000000E+00
  1.00000000E+00  1.00000000E+00  1.00000000E+00  1.00000000E+00  1.00000000E+00
  1.00000000E+00  1.00000000E+00  1.00000000E+00  1.00000000E+00  1.00000000E+00
  1.00000000E+00  1.00000000E+00  1.00000000E+00  1.00000000E+00  1.00000000E+00
  1.00000000E+00  1.00000000E+00  1.00000000E+00  1.00000000E+00  1.00000000E+00
  1.00000000E+00  1.00000000E+00  1.00000000E+00
Virial Ratio                               R      2.004190703741579E+00
SCF Energy                                 R     -3.234676318401577E+02
Total Energy                               R     -3.234676318401577E+02
S**2                                       R      2.004867018472847E+00
S**2 after annihilation                    R      2.000014774846155E+00
RMS Density                                R      3.784609424784272E-09
Job Status                                 I                1
Nuclear derivative order                   I                0
External E-field                           R   N=          35
  0.00000000E+00  0.00000000E+00  0.00000000E+00  0.00000000E+00  0.00000000E+00
  0.00000000E+00  0.00000000E+00  0.00000000E+00  0.00000000E+00  0.00000000E+00
  0.00000000E+00  0.00000000E+00  0.00000000E+00  0.00000000E+00  0.00000000E+00
  0.00000000E+00  0.00000000E+00  0.00000000E+00  0.00000000E+00  0.00000000E+00
  0.00000000E+00  0.00000000E+00  0.00000000E+00  0.00000000E+00  0.00000000E+00
  0.00000000E+00  0.00000000E+00  0.00000000E+00  0.00000000E+00  0.00000000E+00
  0.00000000E+00  0.00000000E+00  0.00000000E+00  0.00000000E+00  0.00000000E+00
IOpCl                                      I                1
IROHF                                      I                0
Alpha Orbital Energies                     R   N=         192
 -1.43404411E+01 -1.43404295E+01 -1.43404295E+01 -1.43404217E+01 -6.74268674E+00
 -6.74265800E+00 -6.74265800E+00 -6.74262672E+00 -9.11801418E-01 -8.90082299E-01
 -8.90082299E-01 -8.70146728E-01 -5.78102071E-01 -5.50577930E-01 -5.50577930E-01
 -5.49375974E-01 -4.78029243E-01 -4.78029243E-01 -4.77220329E-01 -4.30138240E-01
 -3.97452121E-01 -3.84215367E-01 -3.55025715E-01 -3.55025715E-01 -3.41570535E-01
 -3.41570535E-01 -3.34304419E-01 -2.96101353E-01 -9.76298173E-02  1.87332347E-02
  1.87332347E-02  2.90564259E-02  5.19693834E-02  5.19693834E-02  6.94668598E-02
  7.75627024E-02  1.12031316E-01  1.22744228E-01  1.22744228E-01  1.32640262E-01
  1.97949970E-01  1.98561770E-01  2.21925340E-01  2.21925340E-01  2.30231348E-01
  2.46124653E-01  2.46124653E-01  2.57357053E-01  2.69401945E-01  2.81603227E-01
  2.96809559E-01  2.96809559E-01  3.06341733E-01  3.40887114E-01  3.54351150E-01
  3.54351150E-01  3.92003940E-01  4.04097903E-01  4.04097903E-01  4.28502323E-01
  4.72075266E-01  4.72075266E-01  4.82995390E-01  4.92720221E-01  4.96525521E-01
  5.59813491E-01  5.59813491E-01  6.30613540E-01  6.30726327E-01  6.37819305E-01
  6.37819305E-01  6.56994625E-01  6.62433184E-01  6.93947086E-01  6.93947086E-01
  7.21768340E-01  7.27655599E-01  7.80941065E-01  7.98912476E-01  7.98912476E-01
  8.03813555E-01  8.09793585E-01  8.56366530E-01  8.56366530E-01  8.75913846E-01
  8.97466821E-01  9.11968159E-01  9.11968159E-01  9.39308681E-01  1.00498951E+00
  1.00498951E+00  1.01217733E+00  1.01217733E+00  1.03913087E+00  1.15671000E+00
  1.15763095E+00  1.15939647E+00  1.16105206E+00  1.16105206E+00  1.20864920E+00
  1.26120435E+00  1.27209232E+00  1.27209232E+00  1.29185937E+00  1.39259973E+00
  1.40432297E+00  1.41343268E+00  1.41343268E+00  1.41362346E+00  1.51734539E+00
  1.51734539E+00  1.54553813E+00  1.64327928E+00  1.65857522E+00  1.69581618E+00
  1.69581618E+00  1.70486382E+00  1.71662916E+00  1.71662916E+00  1.78922387E+00
  1.83361165E+00  1.83361165E+00  1.84921517E+00  1.85935406E+00  1.89757897E+00
  1.89757897E+00  1.90489191E+00  1.93595605E+00  1.97324198E+00  1.98303041E+00
  1.98326723E+00  1.98667782E+00  1.98667782E+00  2.14387947E+00  2.14387947E+00
  2.17642101E+00  2.25622759E+00  2.28488034E+00  2.33435754E+00  2.33435754E+00
  2.37452510E+00  2.37452510E+00  2.38089610E+00  2.38838524E+00  2.44351501E+00
  2.44351501E+00  2.46210280E+00  2.49455443E+00  2.52148801E+00  2.52148801E+00
  2.55010117E+00  2.55511929E+00  2.57627233E+00  2.67138772E+00  2.67138772E+00
  2.68261137E+00  2.68261137E+00  2.68828523E+00  2.73756510E+00  2.77940393E+00
  2.80834934E+00  2.82861556E+00  2.83584646E+00  2.83584646E+00  2.86681309E+00
  2.86786212E+00  2.94342447E+00  2.94342447E+00  3.08763362E+00  3.18032471E+00
  3.18032471E+00  3.32845418E+00  3.70094906E+00  3.72710710E+00  3.72710710E+00
  3.75974135E+00  4.44107851E+00  4.44883348E+00  4.44883348E+00  4.48674100E+00
  4.67000388E+00  4.76305832E+00  4.78421782E+00  4.78421782E+00  1.46152627E+01
  1.47496474E+01  1.47496474E+01  1.48328606E+01  3.54677883E+01  3.54963496E+01
  3.54963496E+01  3.55466520E+01
Beta Orbital Energies                      R   N=         192
 -1.43351395E+01 -1.43351336E+01 -1.43351336E+01 -1.43351287E+01 -6.74027006E+00
 -6.74025094E+00 -6.74025094E+00 -6.74022429E+00 -8.96706346E-01 -8.74620322E-01
 -8.74620322E-01 -8.54375512E-01 -5.67773973E-01 -5.45188267E-01 -5.42508008E-01
 -5.42508008E-01 -4.72872898E-01 -4.72872898E-01 -4.70433290E-01 -4.24576018E-01
 -3.79154164E-01 -3.58158318E-01 -3.37998588E-01 -3.37998588E-01 -3.31815152E-01
 -3.08463298E-01 -3.08463298E-01 -2.12302810E-01 -3.50832287E-02  3.03164419E-02
  5.31272938E-02  5.31272938E-02  5.50309480E-02  5.50309480E-02  7.08498118E-02
  1.03581936E-01  1.18526611E-01  1.27620178E-01  1.27620178E-01  1.33449777E-01
  1.99346143E-01  1.99625508E-01  2.28342661E-01  2.28342661E-01  2.34795564E-01
  2.49882570E-01  2.49882570E-01  2.72023345E-01  2.85317608E-01  2.91646214E-01