Title Card Required                                                     
SP        RB3LYP                                                      6-311G(d,p)         
Number of atoms                            I               16
Info1-9                                    I   N=           9
          23          23           0           0           0         110
           1          18        -502
Full Title                                 C   N=           2
Title Card Required     
Route                                      C   N=           4
#p b3lyp/6-311g(d,p) nosymm density=current     
Charge                                     I                0
Multiplicity                               I                1
Number of electrons                        I               56
Number of alpha electrons                  I               28
Number of beta electrons                   I               28
Number of basis functions                  I              192
Number of independent functions            I              192
Number of point charges in /Mol/           I                0
Number of translation vectors              I                0
Atomic numbers                             I   N=          16
           1           1           1           1           1           1
           1           1           5           7           7           5
           7           5           5           7
Nuclear charges                            R   N=          16
  1.00000000E+00  1.00000000E+00  1.00000000E+00  1.00000000E+00  1.00000000E+00
  1.00000000E+00  1.00000000E+00  1.00000000E+00  5.00000000E+00  7.00000000E+00
  7.00000000E+00  5.00000000E+00  7.00000000E+00  5.00000000E+00  5.00000000E+00
  7.00000000E+00
Current cartesian coordinates              R   N=          48
  4.14488182E+00  4.14488182E+00  0.00000000E+00  0.00000000E+00  5.36603418E+00
  0.00000000E+00 -4.14488182E+00  4.14488182E+00  0.00000000E+00 -5.36603418E+00
  0.00000000E+00  0.00000000E+00 -4.14488182E+00 -4.14488182E+00  0.00000000E+00
  0.00000000E+00 -5.36603418E+00  0.00000000E+00  4.14488182E+00 -4.14488182E+00
  0.00000000E+00  5.36603418E+00  0.00000000E+00  0.00000000E+00 -2.54490551E+00
  2.54490551E+00  0.00000000E+00  0.00000000E+00  3.45417180E+00  0.00000000E+00
 -3.45417180E+00  0.00000000E+00  0.00000000E+00 -2.54490551E+00 -2.54490551E+00
  0.00000000E+00  0.00000000E+00 -3.45417180E+00  0.00000000E+00  2.54490551E+00
 -2.54490551E+00  0.00000000E+00  2.54490551E+00  2.54490551E+00  0.00000000E+00
  3.45417180E+00  0.00000000E+00  0.00000000E+00
Number of symbols in /Mol/                 I                0
Force Field                                I                0
Atom Types                                 C   N=          16
                                                            
                                                            
                                                            
            
Int Atom Types                             I   N=          16
           0           0           0           0           0           0
           0           0           0           0           0           0
           0           0           0           0
MM charges                                 R   N=          16
  0.00000000E+00  0.00000000E+00  0.00000000E+00  0.00000000E+00  0.00000000E+00
  0.00000000E+00  0.00000000E+00  0.00000000E+00  0.00000000E+00  0.00000000E+00
  0.00000000E+00  0.00000000E+00  0.00000000E+00  0.00000000E+00  0.00000000E+00
  0.00000000E+00
Integer atomic weights                     I   N=          16
           1           1           1           1           1           1
           1           1          11          14          14          11
          14          11          11          14
Real atomic weights                        R   N=          16
  1.00782504E+00  1.00782504E+00  1.00782504E+00  1.00782504E+00  1.00782504E+00
  1.00782504E+00  1.00782504E+00  1.00782504E+00  1.10093053E+01  1.40030740E+01
  1.40030740E+01  1.10093053E+01  1.40030740E+01  1.10093053E+01  1.10093053E+01
  1.40030740E+01
Atom fragment info                         I   N=          16
           0           0           0           0           0           0
           0           0           0           0           0           0
           0           0           0           0
Atom residue num                           I   N=          16
           0           0           0           0           0           0
           0           0           0           0           0           0
           0           0           0           0
Nuclear spins                              I   N=          16
           1           1           1           1           1           1
           1           1           3           2           2           3
           2           3           3           2
Nuclear ZEff                               R   N=          16
 -1.00000000E+00 -1.00000000E+00 -1.00000000E+00 -1.00000000E+00 -1.00000000E+00
 -1.00000000E+00 -1.00000000E+00 -1.00000000E+00 -2.75000000E+00 -4.55000000E+00
 -4.55000000E+00 -2.75000000E+00 -4.55000000E+00 -2.75000000E+00 -2.75000000E+00
 -4.55000000E+00
Nuclear ZNuc                               R   N=          16
  1.00000000E+00  1.00000000E+00  1.00000000E+00  1.00000000E+00  1.00000000E+00
  1.00000000E+00  1.00000000E+00  1.00000000E+00  5.00000000E+00  7.00000000E+00
  7.00000000E+00  5.00000000E+00  7.00000000E+00  5.00000000E+00  5.00000000E+00
  7.00000000E+00
Nuclear QMom                               R   N=          16
  0.00000000E+00  0.00000000E+00  0.00000000E+00  0.00000000E+00  0.00000000E+00
  0.00000000E+00  0.00000000E+00  0.00000000E+00  4.05900000E+00  2.04400000E+00
  2.04400000E+00  4.05900000E+00  2.04400000E+00  4.05900000E+00  4.05900000E+00
  2.04400000E+00
Nuclear GFac                               R   N=          16
  2.79284600E+00  2.79284600E+00  2.79284600E+00  2.79284600E+00  2.79284600E+00
  2.79284600E+00  2.79284600E+00  2.79284600E+00  2.68863700E+00  4.03761000E-01
  4.03761000E-01  2.68863700E+00  4.03761000E-01  2.68863700E+00  2.68863700E+00
  4.03761000E-01
MicOpt                                     I   N=          16
          -1          -1          -1          -1          -1          -1
          -1          -1          -1          -1          -1          -1
          -1          -1          -1          -1
Number of residues                         I                0
Number of secondary structures             I                0
Number of contracted shells                I               72
Number of primitive shells                 I              144
Pure/Cartesian d shells                    I                0
Pure/Cartesian f shells                    I                0
Highest angular momentum                   I                2
Largest degree of contraction              I                6
Shell types                                I   N=          72
           0           0           0           1           0           0
           0           1           0           0           0           1
           0           0           0           1           0           0
           0           1           0           0           0           1
           0           0           0           1           0           0
           0           1           0          -1          -1          -1
          -2           0          -1          -1          -1          -2
           0          -1          -1          -1          -2           0
          -1          -1          -1          -2           0          -1
          -1          -1          -2           0          -1          -1
          -1          -2           0          -1          -1          -1
          -2           0          -1          -1          -1          -2
Number of primitives per shell             I   N=          72
           3           1           1           1           3           1
           1           1           3           1           1           1
           3           1           1           1           3           1
           1           1           3           1           1           1
           3           1           1           1           3           1
           1           1           6           3           1           1
           1           6           3           1           1           1
           6           3           1           1           1           6
           3           1           1           1           6           3
           1           1           1           6           3           1
           1           1           6           3           1           1
           1           6           3           1           1           1
Shell to atom map                          I   N=          72
           1           1           1           1           2           2
           2           2           3           3           3           3
           4           4           4           4           5           5
           5           5           6           6           6           6
           7           7           7           7           8           8
           8           8           9           9           9           9
           9          10          10          10          10          10
          11          11          11          11          11          12
          12          12          12          12          13          13
          13          13          13          14          14          14
          14          14          15          15          15          15
          15          16          16          16          16          16
Primitive exponents                        R   N=         144
  3.38650000E+01  5.09479000E+00  1.15879000E+00  3.25840000E-01  1.02741000E-01
  7.50000000E-01  3.38650000E+01  5.09479000E+00  1.15879000E+00  3.25840000E-01
  1.02741000E-01  7.50000000E-01  3.38650000E+01  5.09479000E+00  1.15879000E+00
  3.25840000E-01  1.02741000E-01  7.50000000E-01  3.38650000E+01  5.09479000E+00
  1.15879000E+00  3.25840000E-01  1.02741000E-01  7.50000000E-01  3.38650000E+01
  5.09479000E+00  1.15879000E+00  3.25840000E-01  1.02741000E-01  7.50000000E-01
  3.38650000E+01  5.09479000E+00  1.15879000E+00  3.25840000E-01  1.02741000E-01
  7.50000000E-01  3.38650000E+01  5.09479000E+00  1.15879000E+00  3.25840000E-01
  1.02741000E-01  7.50000000E-01  3.38650000E+01  5.09479000E+00  1.15879000E+00
  3.25840000E-01  1.02741000E-01  7.50000000E-01  2.85889000E+03  4.28140000E+02
  9.75282000E+01  2.79693000E+01  8.21577000E+00  1.11278000E+00  1.32415000E+01
  3.00166000E+00  9.12856000E-01  3.15454000E-01  9.88563000E-02  4.01000000E-01
  6.29348000E+03  9.49044000E+02  2.18776000E+02  6.36916000E+01  1.88282000E+01
  2.72023000E+00  3.06331000E+01  7.02614000E+00  2.11205000E+00  6.84009000E-01
  2.00878000E-01  9.13000000E-01  6.29348000E+03  9.49044000E+02  2.18776000E+02
  6.36916000E+01  1.88282000E+01  2.72023000E+00  3.06331000E+01  7.02614000E+00
  2.11205000E+00  6.84009000E-01  2.00878000E-01  9.13000000E-01  2.85889000E+03
  4.28140000E+02  9.75282000E+01  2.79693000E+01  8.21577000E+00  1.11278000E+00
  1.32415000E+01  3.00166000E+00  9.12856000E-01  3.15454000E-01  9.88563000E-02
  4.01000000E-01  6.29348000E+03  9.49044000E+02  2.18776000E+02  6.36916000E+01
  1.88282000E+01  2.72023000E+00  3.06331000E+01  7.02614000E+00  2.11205000E+00
  6.84009000E-01  2.00878000E-01  9.13000000E-01  2.85889000E+03  4.28140000E+02
  9.75282000E+01  2.79693000E+01  8.21577000E+00  1.11278000E+00  1.32415000E+01
  3.00166000E+00  9.12856000E-01  3.15454000E-01  9.88563000E-02  4.01000000E-01
  2.85889000E+03  4.28140000E+02  9.75282000E+01  2.79693000E+01  8.21577000E+00
  1.11278000E+00  1.32415000E+01  3.00166000E+00  9.12856000E-01  3.15454000E-01
  9.88563000E-02  4.01000000E-01  6.29348000E+03  9.49044000E+02  2.18776000E+02
  6.36916000E+01  1.88282000E+01  2.72023000E+00  3.06331000E+01  7.02614000E+00
  2.11205000E+00  6.84009000E-01  2.00878000E-01  9.13000000E-01
Contraction coefficients                   R   N=         144
  2.54938145E-02  1.90373109E-01  8.52161486E-01  1.00000000E+00  1.00000000E+00
  1.00000000E+00  2.54938145E-02  1.90373109E-01  8.52161486E-01  1.00000000E+00
  1.00000000E+00  1.00000000E+00  2.54938145E-02  1.90373109E-01  8.52161486E-01
  1.00000000E+00  1.00000000E+00  1.00000000E+00  2.54938145E-02  1.90373109E-01
  8.52161486E-01  1.00000000E+00  1.00000000E+00  1.00000000E+00  2.54938145E-02
  1.90373109E-01  8.52161486E-01  1.00000000E+00  1.00000000E+00  1.00000000E+00
  2.54938145E-02  1.90373109E-01  8.52161486E-01  1.00000000E+00  1.00000000E+00
  1.00000000E+00  2.54938145E-02  1.90373109E-01  8.52161486E-01  1.00000000E+00
  1.00000000E+00  1.00000000E+00  2.54938145E-02  1.90373109E-01  8.52161486E-01
  1.00000000E+00  1.00000000E+00  1.00000000E+00  2.15374907E-03  1.65822928E-02
  8.21869644E-02  2.76617880E-01  6.29315727E-01  1.73769925E-01  1.17442942E-01
  9.18001549E-01 -2.65104870E-03  1.00000000E+00  1.00000000E+00  1.00000000E+00
  1.96978815E-03  1.49612859E-02  7.35005308E-02  2.48936766E-01  6.02459433E-01
  2.56201759E-01  1.11906080E-01  9.21666655E-01 -2.56919183E-03  1.00000000E+00
  1.00000000E+00  1.00000000E+00  1.96978815E-03  1.49612859E-02  7.35005308E-02
  2.48936766E-01  6.02459433E-01  2.56201759E-01  1.11906080E-01  9.21666655E-01
 -2.56919183E-03  1.00000000E+00  1.00000000E+00  1.00000000E+00  2.15374907E-03
  1.65822928E-02  8.21869644E-02  2.76617880E-01  6.29315727E-01  1.73769925E-01
  1.17442942E-01  9.18001549E-01 -2.65104870E-03  1.00000000E+00  1.00000000E+00
  1.00000000E+00  1.96978815E-03  1.49612859E-02  7.35005308E-02  2.48936766E-01
  6.02459433E-01  2.56201759E-01  1.11906080E-01  9.21666655E-01 -2.56919183E-03
  1.00000000E+00  1.00000000E+00  1.00000000E+00  2.15374907E-03  1.65822928E-02
  8.21869644E-02  2.76617880E-01  6.29315727E-01  1.73769925E-01  1.17442942E-01
  9.18001549E-01 -2.65104870E-03  1.00000000E+00  1.00000000E+00  1.00000000E+00
  2.15374907E-03  1.65822928E-02  8.21869644E-02  2.76617880E-01  6.29315727E-01
  1.73769925E-01  1.17442942E-01  9.18001549E-01 -2.65104870E-03  1.00000000E+00
  1.00000000E+00  1.00000000E+00  1.96978815E-03  1.49612859E-02  7.35005308E-02
  2.48936766E-01  6.02459433E-01  2.56201759E-01  1.11906080E-01  9.21666655E-01
 -2.56919183E-03  1.00000000E+00  1.00000000E+00  1.00000000E+00
P(S=P) Contraction coefficients            R   N=         144
  0.00000000E+00  0.00000000E+00  0.00000000E+00  0.00000000E+00  0.00000000E+00
  0.00000000E+00  0.00000000E+00  0.00000000E+00  0.00000000E+00  0.00000000E+00
  0.00000000E+00  0.00000000E+00  0.00000000E+00  0.00000000E+00  0.00000000E+00
  0.00000000E+00  0.00000000E+00  0.00000000E+00  0.00000000E+00  0.00000000E+00
  0.00000000E+00  0.00000000E+00  0.00000000E+00  0.00000000E+00  0.00000000E+00
  0.00000000E+00  0.00000000E+00  0.00000000E+00  0.00000000E+00  0.00000000E+00
  0.00000000E+00  0.00000000E+00  0.00000000E+00  0.00000000E+00  0.00000000E+00
  0.00000000E+00  0.00000000E+00  0.00000000E+00  0.00000000E+00  0.00000000E+00
  0.00000000E+00  0.00000000E+00  0.00000000E+00  0.00000000E+00  0.00000000E+00
  0.00000000E+00  0.00000000E+00  0.00000000E+00  0.00000000E+00  0.00000000E+00
  0.00000000E+00  0.00000000E+00  0.00000000E+00  0.00000000E+00  4.18099989E-02
  2.36574994E-01  8.16213978E-01  1.00000000E+00  1.00000000E+00  0.00000000E+00
  0.00000000E+00  0.00000000E+00  0.00000000E+00  0.00000000E+00  0.00000000E+00
  0.00000000E+00  3.83119186E-02  2.37403116E-01  8.17592398E-01  1.00000000E+00
  1.00000000E+00  0.00000000E+00  0.00000000E+00  0.00000000E+00  0.00000000E+00
  0.00000000E+00  0.00000000E+00  0.00000000E+00  3.83119186E-02  2.37403116E-01
  8.17592398E-01  1.00000000E+00  1.00000000E+00  0.00000000E+00  0.00000000E+00
  0.00000000E+00  0.00000000E+00  0.00000000E+00  0.00000000E+00  0.00000000E+00
  4.18099989E-02  2.36574994E-01  8.16213978E-01  1.00000000E+00  1.00000000E+00
  0.00000000E+00  0.00000000E+00  0.00000000E+00  0.00000000E+00  0.00000000E+00
  0.00000000E+00  0.00000000E+00  3.83119186E-02  2.37403116E-01  8.17592398E-01
  1.00000000E+00  1.00000000E+00  0.00000000E+00  0.00000000E+00  0.00000000E+00
  0.00000000E+00  0.00000000E+00  0.00000000E+00  0.00000000E+00  4.18099989E-02
  2.36574994E-01  8.16213978E-01  1.00000000E+00  1.00000000E+00  0.00000000E+00
  0.00000000E+00  0.00000000E+00  0.00000000E+00  0.00000000E+00  0.00000000E+00
  0.00000000E+00  4.18099989E-02  2.36574994E-01  8.16213978E-01  1.00000000E+00
  1.00000000E+00  0.00000000E+00  0.00000000E+00  0.00000000E+00  0.00000000E+00
  0.00000000E+00  0.00000000E+00  0.00000000E+00  3.83119186E-02  2.37403116E-01
  8.17592398E-01  1.00000000E+00  1.00000000E+00  0.00000000E+00
Coordinates of each shell                  R   N=         216
  4.14488182E+00  4.14488182E+00  0.00000000E+00  4.14488182E+00  4.14488182E+00
  0.00000000E+00  4.14488182E+00  4.14488182E+00  0.00000000E+00  4.14488182E+00
  4.14488182E+00  0.00000000E+00  0.00000000E+00  5.36603418E+00  0.00000000E+00
  0.00000000E+00  5.36603418E+00  0.00000000E+00  0.00000000E+00  5.36603418E+00
  0.00000000E+00  0.00000000E+00  5.36603418E+00  0.00000000E+00 -4.14488182E+00
  4.14488182E+00  0.00000000E+00 -4.14488182E+00  4.14488182E+00  0.00000000E+00
 -4.14488182E+00  4.14488182E+00  0.00000000E+00 -4.14488182E+00  4.14488182E+00
  0.00000000E+00 -5.36603418E+00  0.00000000E+00  0.00000000E+00 -5.36603418E+00
  0.00000000E+00  0.00000000E+00 -5.36603418E+00  0.00000000E+00  0.00000000E+00
 -5.36603418E+00  0.00000000E+00  0.00000000E+00 -4.14488182E+00 -4.14488182E+00
  0.00000000E+00 -4.14488182E+00 -4.14488182E+00  0.00000000E+00 -4.14488182E+00
 -4.14488182E+00  0.00000000E+00 -4.14488182E+00 -4.14488182E+00  0.00000000E+00
  0.00000000E+00 -5.36603418E+00  0.00000000E+00  0.00000000E+00 -5.36603418E+00
  0.00000000E+00  0.00000000E+00 -5.36603418E+00  0.00000000E+00  0.00000000E+00
 -5.36603418E+00  0.00000000E+00  4.14488182E+00 -4.14488182E+00  0.00000000E+00
  4.14488182E+00 -4.14488182E+00  0.00000000E+00  4.14488182E+00 -4.14488182E+00
  0.00000000E+00  4.14488182E+00 -4.14488182E+00  0.00000000E+00  5.36603418E+00
  0.00000000E+00  0.00000000E+00  5.36603418E+00  0.00000000E+00  0.00000000E+00
  5.36603418E+00  0.00000000E+00  0.00000000E+00  5.36603418E+00  0.00000000E+00
  0.00000000E+00 -2.54490551E+00  2.54490551E+00  0.00000000E+00 -2.54490551E+00
  2.54490551E+00  0.00000000E+00 -2.54490551E+00  2.54490551E+00  0.00000000E+00
 -2.54490551E+00  2.54490551E+00  0.00000000E+00 -2.54490551E+00  2.54490551E+00
  0.00000000E+00  0.00000000E+00  3.45417180E+00  0.00000000E+00  0.00000000E+00
  3.45417180E+00  0.00000000E+00  0.00000000E+00  3.45417180E+00  0.00000000E+00
  0.00000000E+00  3.45417180E+00  0.00000000E+00  0.00000000E+00  3.45417180E+00
  0.00000000E+00 -3.45417180E+00  0.00000000E+00  0.00000000E+00 -3.45417180E+00
  0.00000000E+00  0.00000000E+00 -3.45417180E+00  0.00000000E+00  0.00000000E+00
 -3.45417180E+00  0.00000000E+00  0.00000000E+00 -3.45417180E+00  0.00000000E+00
  0.00000000E+00 -2.54490551E+00 -2.54490551E+00  0.00000000E+00 -2.54490551E+00
 -2.54490551E+00  0.00000000E+00 -2.54490551E+00 -2.54490551E+00  0.00000000E+00
 -2.54490551E+00 -2.54490551E+00  0.00000000E+00 -2.54490551E+00 -2.54490551E+00
  0.00000000E+00  0.00000000E+00 -3.45417180E+00  0.00000000E+00  0.00000000E+00
 -3.45417180E+00  0.00000000E+00  0.00000000E+00 -3.45417180E+00  0.00000000E+00
  0.00000000E+00 -3.45417180E+00  0.00000000E+00  0.00000000E+00 -3.45417180E+00
  0.00000000E+00  2.54490551E+00 -2.54490551E+00  0.00000000E+00  2.54490551E+00
 -2.54490551E+00  0.00000000E+00  2.54490551E+00 -2.54490551E+00  0.00000000E+00
  2.54490551E+00 -2.54490551E+00  0.00000000E+00  2.54490551E+00 -2.54490551E+00
  0.00000000E+00  2.54490551E+00  2.54490551E+00  0.00000000E+00  2.54490551E+00
  2.54490551E+00  0.00000000E+00  2.54490551E+00  2.54490551E+00  0.00000000E+00
  2.54490551E+00  2.54490551E+00  0.00000000E+00  2.54490551E+00  2.54490551E+00
  0.00000000E+00  3.45417180E+00  0.00000000E+00  0.00000000E+00  3.45417180E+00
  0.00000000E+00  0.00000000E+00  3.45417180E+00  0.00000000E+00  0.00000000E+00
  3.45417180E+00  0.00000000E+00  0.00000000E+00  3.45417180E+00  0.00000000E+00
  0.00000000E+00
Num ILSW                                   I              100
ILSW                                       I   N=         100
           0           0           0           0           2           0
           0           0           0           0         402          -1
           5           0           0           0           0           0
           0           0           0           0           0           0
           1           1           0           0           0           0
           0           0      100000           0          -1           0
           0           0           0           0           0           0
           0           0           0           1           0           0
           0 -2000000000           1           0           0           0
           0           0           4          52           0           0
           0           0           5           0           0           0
           0           0           0          16           0           1
           0           0           0           0           0           0
           0           0           0           0           0           0
           0           0           0           0           0           0
           0           0           0           0           0           0
           0           0           0           0
Num RLSW                                   I               52
RLSW                                       R   N=          52
  8.00000000E-01  7.20000000E-01  1.00000000E+00  8.10000000E-01  2.00000000E-01
  0.00000000E+00  0.00000000E+00  1.00000000E+00  0.00000000E+00  0.00000000E+00
  0.00000000E+00  0.00000000E+00  1.00000000E+00  0.00000000E+00  0.00000000E+00
  0.00000000E+00  0.00000000E+00  1.00000000E+00  0.00000000E+00  0.00000000E+00
  0.00000000E+00  0.00000000E+00  1.00000000E+00  0.00000000E+00  0.00000000E+00
  0.00000000E+00  0.00000000E+00  1.00000000E+00  0.00000000E+00  0.00000000E+00
  0.00000000E+00  0.00000000E+00  1.00000000E+00  0.00000000E+00  0.00000000E+00
  0.00000000E+00  0.00000000E+00  0.00000000E+00  1.00000000E+00  1.00000000E+00
  0.00000000E+00  1.00000000E+00  0.00000000E+00  0.00000000E+00  0.00000000E+00
  0.00000000E+00  0.00000000E+00  0.00000000E+00  0.00000000E+00  0.00000000E+00
  0.00000000E+00  0.00000000E+00
MxBond                                     I                3
NBond                                      I   N=          16
           1           1           1           1           1           1
           1           1           3           3           3           3
           3           3           3           3
IBond                                      I   N=          48
          15           0           0          10           0           0
           9           0           0          11           0           0
          12           0           0          13           0           0
          14           0           0          16           0           0
           3          10          11           2           9          15
           4           9          12           5          11          13
           6          12          14           7          13          16
           1          10          16           8          14          15
RBond                                      R   N=          48
  1.00000000E+00  0.00000000E+00  0.00000000E+00  1.00000000E+00  0.00000000E+00
  0.00000000E+00  1.00000000E+00  0.00000000E+00  0.00000000E+00  1.00000000E+00
  0.00000000E+00  0.00000000E+00  1.00000000E+00  0.00000000E+00  0.00000000E+00
  1.00000000E+00  0.00000000E+00  0.00000000E+00  1.00000000E+00  0.00000000E+00
  0.00000000E+00  1.00000000E+00  0.00000000E+00  0.00000000E+00  1.00000000E+00
  1.00000000E+00  1.00000000E+00  1.00000000E+00  1.00000000E+00  1.00000000E+00
  1.00000000E+00  1.00000000E+00  1.00000000E+00  1.00000000E+00  1.00000000E+00
  1.00000000E+00  1.00000000E+00  1.00000000E+00  1.00000000E+00  1.00000000E+00
  1.00000000E+00  1.00000000E+00  1.00000000E+00  1.00000000E+00  1.00000000E+00
  1.00000000E+00  1.00000000E+00  1.00000000E+00
Virial Ratio                               R      2.004233703108926E+00
SCF Energy                                 R     -3.236305900237933E+02
Total Energy                               R     -3.236305900237933E+02
RMS Density                                R      1.090273241490235E-09
Job Status                                 I                1
Nuclear derivative order                   I                0
External E-field                           R   N=          35
  0.00000000E+00  0.00000000E+00  0.00000000E+00  0.00000000E+00  0.00000000E+00
  0.00000000E+00  0.00000000E+00  0.00000000E+00  0.00000000E+00  0.00000000E+00
  0.00000000E+00  0.00000000E+00  0.00000000E+00  0.00000000E+00  0.00000000E+00
  0.00000000E+00  0.00000000E+00  0.00000000E+00  0.00000000E+00  0.00000000E+00
  0.00000000E+00  0.00000000E+00  0.00000000E+00  0.00000000E+00  0.00000000E+00
  0.00000000E+00  0.00000000E+00  0.00000000E+00  0.00000000E+00  0.00000000E+00
  0.00000000E+00  0.00000000E+00  0.00000000E+00  0.00000000E+00  0.00000000E+00
IOpCl                                      I                0
IROHF                                      I                0
Alpha Orbital Energies                     R   N=         192
 -1.42959998E+01 -1.42959891E+01 -1.42959891E+01 -1.42959842E+01 -6.75259663E+00
 -6.75257775E+00 -6.75257775E+00 -6.75255473E+00 -8.85248141E-01 -8.62924660E-01
 -8.62924660E-01 -8.42793289E-01 -5.62639642E-01 -5.33279422E-01 -5.33279422E-01
 -5.32757394E-01 -4.65811910E-01 -4.65811910E-01 -4.62225333E-01 -4.13602670E-01
 -3.80765717E-01 -3.65728275E-01 -3.32821453E-01 -3.32821453E-01 -3.23815876E-01
 -3.19313389E-01 -3.19313389E-01 -2.54994144E-01 -4.34913693E-02  3.44465762E-02
  4.99938984E-02  4.99938984E-02  5.91532210E-02  5.91532210E-02  8.01739417E-02
  1.03619051E-01  1.20218003E-01  1.30011523E-01  1.30011523E-01  1.32289876E-01
  2.04807130E-01  2.06652726E-01  2.31708186E-01  2.31708186E-01  2.48972552E-01
  2.60635102E-01  2.60635102E-01  2.72221468E-01  2.85947220E-01  2.90499678E-01
  3.06545933E-01  3.06545933E-01  3.13010945E-01  3.50124455E-01  3.58673301E-01
  3.58673301E-01  4.00947190E-01  4.26197702E-01  4.26197702E-01  4.53484817E-01
  4.79229059E-01  4.79229059E-01  4.89291307E-01  4.91768055E-01  5.18455353E-01
  5.71309773E-01  5.71309773E-01  6.49159097E-01  6.52630077E-01  6.58582667E-01
  6.58582667E-01  6.78656254E-01  6.91304854E-01  7.20460589E-01  7.20460589E-01
  7.35793752E-01  7.62157820E-01  8.00792773E-01  8.01762831E-01  8.12682873E-01
  8.12682873E-01  8.15692308E-01  8.59424800E-01  8.59424800E-01  8.95220149E-01
  9.01660096E-01  9.35489970E-01  9.35489970E-01  9.53011768E-01  1.01213555E+00
  1.01213555E+00  1.02945142E+00  1.02945142E+00  1.07709911E+00  1.15023143E+00
  1.15172876E+00  1.16862209E+00  1.17182333E+00  1.17182333E+00  1.23404305E+00
  1.27750421E+00  1.28671157E+00  1.28671157E+00  1.30757526E+00  1.43304331E+00
  1.44061511E+00  1.44122682E+00  1.44122682E+00  1.45410154E+00  1.55355773E+00
  1.55355773E+00  1.59999503E+00  1.65849570E+00  1.66972189E+00  1.69329828E+00
  1.69329828E+00  1.69672489E+00  1.74099580E+00  1.74099580E+00  1.78852266E+00
  1.84667774E+00  1.84667774E+00  1.86736391E+00  1.88174628E+00  1.91965597E+00
  1.91965597E+00  1.92178649E+00  1.96143457E+00  1.97199478E+00  1.97942013E+00
  1.99600148E+00  1.99600148E+00  2.00295476E+00  2.14482629E+00  2.14482629E+00
  2.18683209E+00  2.27200246E+00  2.32015977E+00  2.37975015E+00  2.37975015E+00
  2.39028312E+00  2.39028312E+00  2.39531479E+00  2.39928053E+00  2.47276833E+00
  2.47276833E+00  2.49854860E+00  2.50671184E+00  2.52557570E+00  2.52557570E+00
  2.56147380E+00  2.61279960E+00  2.62069434E+00  2.70248392E+00  2.70248392E+00
  2.71223253E+00  2.72834415E+00  2.72834415E+00  2.74660419E+00  2.75041509E+00
  2.83315876E+00  2.84186322E+00  2.84827863E+00  2.84827863E+00  2.90254469E+00
  2.91160278E+00  2.97327264E+00  2.97327264E+00  3.11208384E+00  3.18820764E+00
  3.18820764E+00  3.36161994E+00  3.75792157E+00  3.77745116E+00  3.77745116E+00
  3.80784789E+00  4.50605327E+00  4.50605327E+00  4.50926513E+00  4.52226967E+00
  4.73833829E+00  4.75664003E+00  4.84676122E+00  4.84676122E+00  1.46410517E+01
  1.47619275E+01  1.47619275E+01  1.48541285E+01  3.55405585E+01  3.55490474E+01
  3.55490474E+01  3.55934746E+01
Alpha MO coefficients                      R   N=       36864
 -9.26273372E-14 -4.14309077E-13  2.60264794E-13  1.71042309E-04 -1.71042309E-04
  3.17748697E-16 -4.52766648E-05 -4.97047030E-04 -7.56455677E-04 -2.83801215E-15
  8.30296008E-04  1.11849939E-16 -1.40113876E-13 -7.47461672E-13  7.32081129E-13
 -1.71042309E-04 -1.71042309E-04 -2.75928652E-19  4.52766646E-05  4.97047027E-04
  7.56455678E-04  8.30296007E-04 -6.20685958E-15 -1.72603578E-16 -2.72666466E-13
 -1.65811886E-12  2.06004583E-12 -1.71042310E-04  1.71042308E-04  3.71443922E-16
 -4.52766649E-05 -4.97047031E-04 -7.56455677E-04 -1.93719723E-15 -8.30296009E-04
  1.71886675E-16 -2.23002810E-13 -1.31802925E-12  1.56738883E-12  1.71042309E-04
  1.71042309E-04  4.54573064E-16  4.52766647E-05  4.97047028E-04  7.56455677E-04
 -8.30296007E-04 -5.62690610E-15 -2.25561823E-16 -2.04208616E-14  4.99220401E-14
  3.02506687E-04  3.02506687E-04 -2.70473984E-16  7.60153527E-13 -1.29918464E-03
 -1.29918464E-03 -1.73430947E-16 -3.73216311E-14  1.29729525E-03  1.29729525E-03