Title Card Required                                                     
SP        RB3LYP                                                      6-311G(d,p)         
Number of atoms                            I               16
Info1-9                                    I   N=           9
          23          23           0           0           0         110
           1          18        -502
Full Title                                 C   N=           2
Title Card Required     
Route                                      C   N=           5
#p b3lyp/6-311g(d,p) nosymm pop=nbo density=current         
Charge                                     I                0
Multiplicity                               I                1
Number of electrons                        I               56
Number of alpha electrons                  I               28
Number of beta electrons                   I               28
Number of basis functions                  I              192
Number of independent functions            I              192
Number of point charges in /Mol/           I                0
Number of translation vectors              I                0
Atomic numbers                             I   N=          16
           6           6           6           6           1           1
           1           1           1           1           1           1
           5           7           7           5
Nuclear charges                            R   N=          16
  6.00000000E+00  6.00000000E+00  6.00000000E+00  6.00000000E+00  1.00000000E+00
  1.00000000E+00  1.00000000E+00  1.00000000E+00  1.00000000E+00  1.00000000E+00
  1.00000000E+00  1.00000000E+00  5.00000000E+00  7.00000000E+00  7.00000000E+00
  5.00000000E+00
Current cartesian coordinates              R   N=          48
 -2.91969489E+00  1.38470060E+00 -7.22344032E-01  1.18442175E+00 -3.21730030E+00
 -5.60566468E-01  2.91969489E+00 -1.38470060E+00 -7.22344032E-01 -1.18442175E+00
  3.21730030E+00 -5.60566468E-01  1.56777915E+00 -5.06527293E+00 -1.38019549E+00
 -1.68426943E+00 -4.76831947E+00  1.45529888E+00 -5.00444642E+00 -1.78973694E+00
  1.63658597E+00 -4.62053155E+00  1.94079408E+00 -1.74115019E+00 -1.56777915E+00
  5.06527293E+00 -1.38019549E+00  1.68426943E+00  4.76831947E+00  1.45529888E+00
  5.00444642E+00  1.78973694E+00  1.63658597E+00  4.62053155E+00 -1.94079408E+00
 -1.74115019E+00 -3.06532475E+00 -1.22568203E+00  6.13008258E-01 -1.18442175E+00
 -3.10097254E+00  6.65982950E-01  1.18442175E+00  3.10097254E+00  6.65982950E-01
  3.06532475E+00  1.22568203E+00  6.13008258E-01
Number of symbols in /Mol/                 I                0
Force Field                                I                0
Atom Types                                 C   N=          16
                                                            
                                                            
                                                            
            
Int Atom Types                             I   N=          16
           0           0           0           0           0           0
           0           0           0           0           0           0
           0           0           0           0
MM charges                                 R   N=          16
  0.00000000E+00  0.00000000E+00  0.00000000E+00  0.00000000E+00  0.00000000E+00
  0.00000000E+00  0.00000000E+00  0.00000000E+00  0.00000000E+00  0.00000000E+00
  0.00000000E+00  0.00000000E+00  0.00000000E+00  0.00000000E+00  0.00000000E+00
  0.00000000E+00
Integer atomic weights                     I   N=          16
          12          12          12          12           1           1
           1           1           1           1           1           1
          11          14          14          11
Real atomic weights                        R   N=          16
  1.20000000E+01  1.20000000E+01  1.20000000E+01  1.20000000E+01  1.00782504E+00
  1.00782504E+00  1.00782504E+00  1.00782504E+00  1.00782504E+00  1.00782504E+00
  1.00782504E+00  1.00782504E+00  1.10093053E+01  1.40030740E+01  1.40030740E+01
  1.10093053E+01
Atom fragment info                         I   N=          16
           0           0           0           0           0           0
           0           0           0           0           0           0
           0           0           0           0
Atom residue num                           I   N=          16
           0           0           0           0           0           0
           0           0           0           0           0           0
           0           0           0           0
Nuclear spins                              I   N=          16
           0           0           0           0           1           1
           1           1           1           1           1           1
           3           2           2           3
Nuclear ZEff                               R   N=          16
 -3.60000000E+00 -3.60000000E+00 -3.60000000E+00 -3.60000000E+00 -1.00000000E+00
 -1.00000000E+00 -1.00000000E+00 -1.00000000E+00 -1.00000000E+00 -1.00000000E+00
 -1.00000000E+00 -1.00000000E+00 -2.75000000E+00 -4.55000000E+00 -4.55000000E+00
 -2.75000000E+00
Nuclear ZNuc                               R   N=          16
  6.00000000E+00  6.00000000E+00  6.00000000E+00  6.00000000E+00  1.00000000E+00
  1.00000000E+00  1.00000000E+00  1.00000000E+00  1.00000000E+00  1.00000000E+00
  1.00000000E+00  1.00000000E+00  5.00000000E+00  7.00000000E+00  7.00000000E+00
  5.00000000E+00
Nuclear QMom                               R   N=          16
  0.00000000E+00  0.00000000E+00  0.00000000E+00  0.00000000E+00  0.00000000E+00
  0.00000000E+00  0.00000000E+00  0.00000000E+00  0.00000000E+00  0.00000000E+00
  0.00000000E+00  0.00000000E+00  4.05900000E+00  2.04400000E+00  2.04400000E+00
  4.05900000E+00
Nuclear GFac                               R   N=          16
  0.00000000E+00  0.00000000E+00  0.00000000E+00  0.00000000E+00  2.79284600E+00
  2.79284600E+00  2.79284600E+00  2.79284600E+00  2.79284600E+00  2.79284600E+00
  2.79284600E+00  2.79284600E+00  2.68863700E+00  4.03761000E-01  4.03761000E-01
  2.68863700E+00
MicOpt                                     I   N=          16
          -1          -1          -1          -1          -1          -1
          -1          -1          -1          -1          -1          -1
          -1          -1          -1          -1
Number of residues                         I                0
Number of secondary structures             I                0
Number of contracted shells                I               72
Number of primitive shells                 I              144
Pure/Cartesian d shells                    I                0
Pure/Cartesian f shells                    I                0
Highest angular momentum                   I                2
Largest degree of contraction              I                6
Shell types                                I   N=          72
           0          -1          -1          -1          -2           0
          -1          -1          -1          -2           0          -1
          -1          -1          -2           0          -1          -1
          -1          -2           0           0           0           1
           0           0           0           1           0           0
           0           1           0           0           0           1
           0           0           0           1           0           0
           0           1           0           0           0           1
           0           0           0           1           0          -1
          -1          -1          -2           0          -1          -1
          -1          -2           0          -1          -1          -1
          -2           0          -1          -1          -1          -2
Number of primitives per shell             I   N=          72
           6           3           1           1           1           6
           3           1           1           1           6           3
           1           1           1           6           3           1
           1           1           3           1           1           1
           3           1           1           1           3           1
           1           1           3           1           1           1
           3           1           1           1           3           1
           1           1           3           1           1           1
           3           1           1           1           6           3
           1           1           1           6           3           1
           1           1           6           3           1           1
           1           6           3           1           1           1
Shell to atom map                          I   N=          72
           1           1           1           1           1           2
           2           2           2           2           3           3
           3           3           3           4           4           4
           4           4           5           5           5           5
           6           6           6           6           7           7
           7           7           8           8           8           8
           9           9           9           9          10          10
          10          10          11          11          11          11
          12          12          12          12          13          13
          13          13          13          14          14          14
          14          14          15          15          15          15
          15          16          16          16          16          16
Primitive exponents                        R   N=         144
  4.56324000E+03  6.82024000E+02  1.54973000E+02  4.44553000E+01  1.30290000E+01
  1.82773000E+00  2.09642000E+01  4.80331000E+00  1.45933000E+00  4.83456000E-01
  1.45585000E-01  6.26000000E-01  4.56324000E+03  6.82024000E+02  1.54973000E+02
  4.44553000E+01  1.30290000E+01  1.82773000E+00  2.09642000E+01  4.80331000E+00
  1.45933000E+00  4.83456000E-01  1.45585000E-01  6.26000000E-01  4.56324000E+03
  6.82024000E+02  1.54973000E+02  4.44553000E+01  1.30290000E+01  1.82773000E+00
  2.09642000E+01  4.80331000E+00  1.45933000E+00  4.83456000E-01  1.45585000E-01
  6.26000000E-01  4.56324000E+03  6.82024000E+02  1.54973000E+02  4.44553000E+01
  1.30290000E+01  1.82773000E+00  2.09642000E+01  4.80331000E+00  1.45933000E+00
  4.83456000E-01  1.45585000E-01  6.26000000E-01  3.38650000E+01  5.09479000E+00
  1.15879000E+00  3.25840000E-01  1.02741000E-01  7.50000000E-01  3.38650000E+01
  5.09479000E+00  1.15879000E+00  3.25840000E-01  1.02741000E-01  7.50000000E-01
  3.38650000E+01  5.09479000E+00  1.15879000E+00  3.25840000E-01  1.02741000E-01
  7.50000000E-01  3.38650000E+01  5.09479000E+00  1.15879000E+00  3.25840000E-01
  1.02741000E-01  7.50000000E-01  3.38650000E+01  5.09479000E+00  1.15879000E+00
  3.25840000E-01  1.02741000E-01  7.50000000E-01  3.38650000E+01  5.09479000E+00
  1.15879000E+00  3.25840000E-01  1.02741000E-01  7.50000000E-01  3.38650000E+01
  5.09479000E+00  1.15879000E+00  3.25840000E-01  1.02741000E-01  7.50000000E-01
  3.38650000E+01  5.09479000E+00  1.15879000E+00  3.25840000E-01  1.02741000E-01
  7.50000000E-01  2.85889000E+03  4.28140000E+02  9.75282000E+01  2.79693000E+01
  8.21577000E+00  1.11278000E+00  1.32415000E+01  3.00166000E+00  9.12856000E-01
  3.15454000E-01  9.88563000E-02  4.01000000E-01  6.29348000E+03  9.49044000E+02
  2.18776000E+02  6.36916000E+01  1.88282000E+01  2.72023000E+00  3.06331000E+01
  7.02614000E+00  2.11205000E+00  6.84009000E-01  2.00878000E-01  9.13000000E-01
  6.29348000E+03  9.49044000E+02  2.18776000E+02  6.36916000E+01  1.88282000E+01
  2.72023000E+00  3.06331000E+01  7.02614000E+00  2.11205000E+00  6.84009000E-01
  2.00878000E-01  9.13000000E-01  2.85889000E+03  4.28140000E+02  9.75282000E+01
  2.79693000E+01  8.21577000E+00  1.11278000E+00  1.32415000E+01  3.00166000E+00
  9.12856000E-01  3.15454000E-01  9.88563000E-02  4.01000000E-01
Contraction coefficients                   R   N=         144
  1.96665025E-03  1.52306019E-02  7.61269097E-02  2.60801033E-01  6.16462078E-01
  2.21006028E-01  1.14660081E-01  9.19999648E-01 -3.03068213E-03  1.00000000E+00
  1.00000000E+00  1.00000000E+00  1.96665025E-03  1.52306019E-02  7.61269097E-02
  2.60801033E-01  6.16462078E-01  2.21006028E-01  1.14660081E-01  9.19999648E-01
 -3.03068213E-03  1.00000000E+00  1.00000000E+00  1.00000000E+00  1.96665025E-03
  1.52306019E-02  7.61269097E-02  2.60801033E-01  6.16462078E-01  2.21006028E-01
  1.14660081E-01  9.19999648E-01 -3.03068213E-03  1.00000000E+00  1.00000000E+00
  1.00000000E+00  1.96665025E-03  1.52306019E-02  7.61269097E-02  2.60801033E-01
  6.16462078E-01  2.21006028E-01  1.14660081E-01  9.19999648E-01 -3.03068213E-03
  1.00000000E+00  1.00000000E+00  1.00000000E+00  2.54938145E-02  1.90373109E-01
  8.52161486E-01  1.00000000E+00  1.00000000E+00  1.00000000E+00  2.54938145E-02
  1.90373109E-01  8.52161486E-01  1.00000000E+00  1.00000000E+00  1.00000000E+00
  2.54938145E-02  1.90373109E-01  8.52161486E-01  1.00000000E+00  1.00000000E+00
  1.00000000E+00  2.54938145E-02  1.90373109E-01  8.52161486E-01  1.00000000E+00
  1.00000000E+00  1.00000000E+00  2.54938145E-02  1.90373109E-01  8.52161486E-01
  1.00000000E+00  1.00000000E+00  1.00000000E+00  2.54938145E-02  1.90373109E-01
  8.52161486E-01  1.00000000E+00  1.00000000E+00  1.00000000E+00  2.54938145E-02
  1.90373109E-01  8.52161486E-01  1.00000000E+00  1.00000000E+00  1.00000000E+00
  2.54938145E-02  1.90373109E-01  8.52161486E-01  1.00000000E+00  1.00000000E+00
  1.00000000E+00  2.15374907E-03  1.65822928E-02  8.21869644E-02  2.76617880E-01
  6.29315727E-01  1.73769925E-01  1.17442942E-01  9.18001549E-01 -2.65104870E-03
  1.00000000E+00  1.00000000E+00  1.00000000E+00  1.96978815E-03  1.49612859E-02
  7.35005308E-02  2.48936766E-01  6.02459433E-01  2.56201759E-01  1.11906080E-01
  9.21666655E-01 -2.56919183E-03  1.00000000E+00  1.00000000E+00  1.00000000E+00
  1.96978815E-03  1.49612859E-02  7.35005308E-02  2.48936766E-01  6.02459433E-01
  2.56201759E-01  1.11906080E-01  9.21666655E-01 -2.56919183E-03  1.00000000E+00
  1.00000000E+00  1.00000000E+00  2.15374907E-03  1.65822928E-02  8.21869644E-02
  2.76617880E-01  6.29315727E-01  1.73769925E-01  1.17442942E-01  9.18001549E-01
 -2.65104870E-03  1.00000000E+00  1.00000000E+00  1.00000000E+00
P(S=P) Contraction coefficients            R   N=         144
  0.00000000E+00  0.00000000E+00  0.00000000E+00  0.00000000E+00  0.00000000E+00
  0.00000000E+00  4.02486927E-02  2.37593957E-01  8.15853851E-01  1.00000000E+00
  1.00000000E+00  0.00000000E+00  0.00000000E+00  0.00000000E+00  0.00000000E+00
  0.00000000E+00  0.00000000E+00  0.00000000E+00  4.02486927E-02  2.37593957E-01
  8.15853851E-01  1.00000000E+00  1.00000000E+00  0.00000000E+00  0.00000000E+00
  0.00000000E+00  0.00000000E+00  0.00000000E+00  0.00000000E+00  0.00000000E+00
  4.02486927E-02  2.37593957E-01  8.15853851E-01  1.00000000E+00  1.00000000E+00
  0.00000000E+00  0.00000000E+00  0.00000000E+00  0.00000000E+00  0.00000000E+00
  0.00000000E+00  0.00000000E+00  4.02486927E-02  2.37593957E-01  8.15853851E-01
  1.00000000E+00  1.00000000E+00  0.00000000E+00  0.00000000E+00  0.00000000E+00
  0.00000000E+00  0.00000000E+00  0.00000000E+00  0.00000000E+00  0.00000000E+00
  0.00000000E+00  0.00000000E+00  0.00000000E+00  0.00000000E+00  0.00000000E+00
  0.00000000E+00  0.00000000E+00  0.00000000E+00  0.00000000E+00  0.00000000E+00
  0.00000000E+00  0.00000000E+00  0.00000000E+00  0.00000000E+00  0.00000000E+00
  0.00000000E+00  0.00000000E+00  0.00000000E+00  0.00000000E+00  0.00000000E+00
  0.00000000E+00  0.00000000E+00  0.00000000E+00  0.00000000E+00  0.00000000E+00
  0.00000000E+00  0.00000000E+00  0.00000000E+00  0.00000000E+00  0.00000000E+00
  0.00000000E+00  0.00000000E+00  0.00000000E+00  0.00000000E+00  0.00000000E+00
  0.00000000E+00  0.00000000E+00  0.00000000E+00  0.00000000E+00  0.00000000E+00
  0.00000000E+00  0.00000000E+00  0.00000000E+00  0.00000000E+00  0.00000000E+00
  0.00000000E+00  0.00000000E+00  4.18099989E-02  2.36574994E-01  8.16213978E-01
  1.00000000E+00  1.00000000E+00  0.00000000E+00  0.00000000E+00  0.00000000E+00
  0.00000000E+00  0.00000000E+00  0.00000000E+00  0.00000000E+00  3.83119186E-02
  2.37403116E-01  8.17592398E-01  1.00000000E+00  1.00000000E+00  0.00000000E+00
  0.00000000E+00  0.00000000E+00  0.00000000E+00  0.00000000E+00  0.00000000E+00
  0.00000000E+00  3.83119186E-02  2.37403116E-01  8.17592398E-01  1.00000000E+00
  1.00000000E+00  0.00000000E+00  0.00000000E+00  0.00000000E+00  0.00000000E+00
  0.00000000E+00  0.00000000E+00  0.00000000E+00  4.18099989E-02  2.36574994E-01
  8.16213978E-01  1.00000000E+00  1.00000000E+00  0.00000000E+00
Coordinates of each shell                  R   N=         216
 -2.91969489E+00  1.38470060E+00 -7.22344032E-01 -2.91969489E+00  1.38470060E+00
 -7.22344032E-01 -2.91969489E+00  1.38470060E+00 -7.22344032E-01 -2.91969489E+00
  1.38470060E+00 -7.22344032E-01 -2.91969489E+00  1.38470060E+00 -7.22344032E-01
  1.18442175E+00 -3.21730030E+00 -5.60566468E-01  1.18442175E+00 -3.21730030E+00
 -5.60566468E-01  1.18442175E+00 -3.21730030E+00 -5.60566468E-01  1.18442175E+00
 -3.21730030E+00 -5.60566468E-01  1.18442175E+00 -3.21730030E+00 -5.60566468E-01
  2.91969489E+00 -1.38470060E+00 -7.22344032E-01  2.91969489E+00 -1.38470060E+00
 -7.22344032E-01  2.91969489E+00 -1.38470060E+00 -7.22344032E-01  2.91969489E+00
 -1.38470060E+00 -7.22344032E-01  2.91969489E+00 -1.38470060E+00 -7.22344032E-01
 -1.18442175E+00  3.21730030E+00 -5.60566468E-01 -1.18442175E+00  3.21730030E+00
 -5.60566468E-01 -1.18442175E+00  3.21730030E+00 -5.60566468E-01 -1.18442175E+00
  3.21730030E+00 -5.60566468E-01 -1.18442175E+00  3.21730030E+00 -5.60566468E-01
  1.56777915E+00 -5.06527293E+00 -1.38019549E+00  1.56777915E+00 -5.06527293E+00
 -1.38019549E+00  1.56777915E+00 -5.06527293E+00 -1.38019549E+00  1.56777915E+00
 -5.06527293E+00 -1.38019549E+00 -1.68426943E+00 -4.76831947E+00  1.45529888E+00
 -1.68426943E+00 -4.76831947E+00  1.45529888E+00 -1.68426943E+00 -4.76831947E+00
  1.45529888E+00 -1.68426943E+00 -4.76831947E+00  1.45529888E+00 -5.00444642E+00
 -1.78973694E+00  1.63658597E+00 -5.00444642E+00 -1.78973694E+00  1.63658597E+00
 -5.00444642E+00 -1.78973694E+00  1.63658597E+00 -5.00444642E+00 -1.78973694E+00
  1.63658597E+00 -4.62053155E+00  1.94079408E+00 -1.74115019E+00 -4.62053155E+00
  1.94079408E+00 -1.74115019E+00 -4.62053155E+00  1.94079408E+00 -1.74115019E+00
 -4.62053155E+00  1.94079408E+00 -1.74115019E+00 -1.56777915E+00  5.06527293E+00
 -1.38019549E+00 -1.56777915E+00  5.06527293E+00 -1.38019549E+00 -1.56777915E+00
  5.06527293E+00 -1.38019549E+00 -1.56777915E+00  5.06527293E+00 -1.38019549E+00
  1.68426943E+00  4.76831947E+00  1.45529888E+00  1.68426943E+00  4.76831947E+00
  1.45529888E+00  1.68426943E+00  4.76831947E+00  1.45529888E+00  1.68426943E+00
  4.76831947E+00  1.45529888E+00  5.00444642E+00  1.78973694E+00  1.63658597E+00
  5.00444642E+00  1.78973694E+00  1.63658597E+00  5.00444642E+00  1.78973694E+00
  1.63658597E+00  5.00444642E+00  1.78973694E+00  1.63658597E+00  4.62053155E+00
 -1.94079408E+00 -1.74115019E+00  4.62053155E+00 -1.94079408E+00 -1.74115019E+00
  4.62053155E+00 -1.94079408E+00 -1.74115019E+00  4.62053155E+00 -1.94079408E+00
 -1.74115019E+00 -3.06532475E+00 -1.22568203E+00  6.13008258E-01 -3.06532475E+00
 -1.22568203E+00  6.13008258E-01 -3.06532475E+00 -1.22568203E+00  6.13008258E-01
 -3.06532475E+00 -1.22568203E+00  6.13008258E-01 -3.06532475E+00 -1.22568203E+00
  6.13008258E-01 -1.18442175E+00 -3.10097254E+00  6.65982950E-01 -1.18442175E+00
 -3.10097254E+00  6.65982950E-01 -1.18442175E+00 -3.10097254E+00  6.65982950E-01
 -1.18442175E+00 -3.10097254E+00  6.65982950E-01 -1.18442175E+00 -3.10097254E+00
  6.65982950E-01  1.18442175E+00  3.10097254E+00  6.65982950E-01  1.18442175E+00
  3.10097254E+00  6.65982950E-01  1.18442175E+00  3.10097254E+00  6.65982950E-01
  1.18442175E+00  3.10097254E+00  6.65982950E-01  1.18442175E+00  3.10097254E+00
  6.65982950E-01  3.06532475E+00  1.22568203E+00  6.13008258E-01  3.06532475E+00
  1.22568203E+00  6.13008258E-01  3.06532475E+00  1.22568203E+00  6.13008258E-01
  3.06532475E+00  1.22568203E+00  6.13008258E-01  3.06532475E+00  1.22568203E+00
  6.13008258E-01
Num ILSW                                   I              100
ILSW                                       I   N=         100
           0           0           0           0           2           0
           0           0           0           0         402          -1
           5           0           0           0           0           0
           0           0           0           0           0           0
           1           1           0           0           0           0
           0           0      100000           0          -1           0
           0           0           0           0           0           0
           0           0           0           1           0           0
           0 -2000000000           1           0           0           0
           0           0           4          52           0           0
           0           0           5           0           0           0
           0           0           0          16           0           1
           0           0           0           0           0           0
           0           0           0           0           0           0
           0           0           0           0           0           0
           0           0           0           0           0           0
           0           0           0           0
Num RLSW                                   I               52
RLSW                                       R   N=          52
  8.00000000E-01  7.20000000E-01  1.00000000E+00  8.10000000E-01  2.00000000E-01
  0.00000000E+00  0.00000000E+00  1.00000000E+00  0.00000000E+00  0.00000000E+00
  0.00000000E+00  0.00000000E+00  1.00000000E+00  0.00000000E+00  0.00000000E+00
  0.00000000E+00  0.00000000E+00  1.00000000E+00  0.00000000E+00  0.00000000E+00
  0.00000000E+00  0.00000000E+00  1.00000000E+00  0.00000000E+00  0.00000000E+00
  0.00000000E+00  0.00000000E+00  1.00000000E+00  0.00000000E+00  0.00000000E+00
  0.00000000E+00  0.00000000E+00  1.00000000E+00  0.00000000E+00  0.00000000E+00
  0.00000000E+00  0.00000000E+00  0.00000000E+00  1.00000000E+00  1.00000000E+00
  0.00000000E+00  1.00000000E+00  0.00000000E+00  0.00000000E+00  0.00000000E+00
  0.00000000E+00  0.00000000E+00  0.00000000E+00  0.00000000E+00  0.00000000E+00
  0.00000000E+00  0.00000000E+00
MxBond                                     I                3
NBond                                      I   N=          16
           3           3           3           3           1           1
           1           1           1           1           1           1
           3           3           3           3
IBond                                      I   N=          48
           4           8          13           3           5          14
           2          12          16           1           9          15
           2           0           0          14           0           0
          13           0           0           1           0           0
           4           0           0          15           0           0
          16           0           0           3           0           0
           1           7          14           2           6          13
           4          10          16           3          11          15
RBond                                      R   N=          48
  2.00000000E+00  1.00000000E+00  1.00000000E+00  2.00000000E+00  1.00000000E+00
  1.00000000E+00  2.00000000E+00  1.00000000E+00  1.00000000E+00  2.00000000E+00
  1.00000000E+00  1.00000000E+00  1.00000000E+00  0.00000000E+00  0.00000000E+00
  1.00000000E+00  0.00000000E+00  0.00000000E+00  1.00000000E+00  0.00000000E+00
  0.00000000E+00  1.00000000E+00  0.00000000E+00  0.00000000E+00  1.00000000E+00
  0.00000000E+00  0.00000000E+00  1.00000000E+00  0.00000000E+00  0.00000000E+00
  1.00000000E+00  0.00000000E+00  0.00000000E+00  1.00000000E+00  0.00000000E+00
  0.00000000E+00  1.00000000E+00  1.00000000E+00  1.00000000E+00  1.00000000E+00
  1.00000000E+00  1.00000000E+00  1.00000000E+00  1.00000000E+00  1.00000000E+00
  1.00000000E+00  1.00000000E+00  1.00000000E+00
Virial Ratio                               R      2.004382210485057E+00
SCF Energy                                 R     -3.165809238841374E+02
Total Energy                               R     -3.165809238841374E+02
RMS Density                                R      4.320459442275152E-09
Job Status                                 I                1
Nuclear derivative order                   I                0
External E-field                           R   N=          35
  0.00000000E+00  0.00000000E+00  0.00000000E+00  0.00000000E+00  0.00000000E+00
  0.00000000E+00  0.00000000E+00  0.00000000E+00  0.00000000E+00  0.00000000E+00
  0.00000000E+00  0.00000000E+00  0.00000000E+00  0.00000000E+00  0.00000000E+00
  0.00000000E+00  0.00000000E+00  0.00000000E+00  0.00000000E+00  0.00000000E+00
  0.00000000E+00  0.00000000E+00  0.00000000E+00  0.00000000E+00  0.00000000E+00
  0.00000000E+00  0.00000000E+00  0.00000000E+00  0.00000000E+00  0.00000000E+00
  0.00000000E+00  0.00000000E+00  0.00000000E+00  0.00000000E+00  0.00000000E+00
IOpCl                                      I                0
IROHF                                      I                0
Alpha Orbital Energies                     R   N=         192
 -1.43234935E+01 -1.43234922E+01 -1.02087680E+01 -1.02087666E+01 -1.01433907E+01
 -1.01433899E+01 -6.73220639E+00 -6.73220410E+00 -9.14908247E-01 -9.07352472E-01
 -7.46072222E-01 -7.37240488E-01 -6.09266991E-01 -5.77000811E-01 -5.35668984E-01
 -5.31064221E-01 -4.99661847E-01 -4.54538708E-01 -4.43183942E-01 -4.34270722E-01
 -3.94816659E-01 -3.53358496E-01 -3.43123231E-01 -3.38162297E-01 -3.18171169E-01
 -3.14447504E-01 -2.55019217E-01 -2.23968161E-01 -4.90855586E-02  8.61074072E-03
  3.42098021E-02  4.01244152E-02  5.12264551E-02  7.89060194E-02  8.25921355E-02
  9.07815688E-02  1.20037048E-01  1.20505006E-01  1.39588688E-01  1.40939458E-01
  1.90273980E-01  2.13061185E-01  2.29869596E-01  2.33389604E-01  2.44750135E-01
  2.66876907E-01  2.76714342E-01  3.09613162E-01  3.26586525E-01  3.39666926E-01
  3.54081190E-01  3.56235031E-01  3.71906051E-01  3.81289261E-01  4.18523639E-01
  4.25498299E-01  4.31113258E-01  4.42017819E-01  4.74180640E-01  4.84571660E-01
  5.00698526E-01  5.03584602E-01  5.19110544E-01  5.22578680E-01  5.49511716E-01
  5.67514729E-01  5.76577085E-01  5.76637251E-01  6.00979149E-01  6.04335763E-01
  6.42892649E-01  6.43770002E-01  6.72316407E-01  6.93481298E-01  6.95438859E-01
  7.29057535E-01  7.46199256E-01  7.52422496E-01  7.68460855E-01  8.03354154E-01
  8.23025417E-01  8.31770652E-01  8.61164149E-01  8.70958201E-01  8.88842227E-01
  9.22235152E-01  9.73113869E-01  9.98070295E-01  1.03972079E+00  1.05533428E+00
  1.07483481E+00  1.07721725E+00  1.13323194E+00  1.14315301E+00  1.15990014E+00
  1.18262198E+00  1.23730236E+00  1.27404466E+00  1.27683266E+00  1.29042202E+00
  1.34645979E+00  1.35842964E+00  1.43833693E+00  1.44906127E+00  1.49885526E+00
  1.50050345E+00  1.52317967E+00  1.53254877E+00  1.58885372E+00  1.59591196E+00
  1.61765042E+00  1.63917228E+00  1.65467016E+00  1.68273332E+00  1.72590739E+00
  1.72604164E+00  1.73667098E+00  1.77424089E+00  1.78968505E+00  1.79772734E+00
  1.82066502E+00  1.82497744E+00  1.82939931E+00  1.88681029E+00  1.90179530E+00
  1.91980462E+00  1.92827083E+00  1.93336118E+00  2.00214715E+00  2.01720938E+00
  2.02586973E+00  2.06830053E+00  2.08416739E+00  2.09612856E+00  2.12642425E+00
  2.15291505E+00  2.23417083E+00  2.23791633E+00  2.29013920E+00  2.31533948E+00
  2.39758178E+00  2.42618657E+00  2.42851039E+00  2.47564710E+00  2.47963498E+00
  2.50341904E+00  2.52405581E+00  2.53213147E+00  2.53322196E+00  2.54138477E+00
  2.59556824E+00  2.60502707E+00  2.63595274E+00  2.64670021E+00  2.65077235E+00
  2.70322594E+00  2.72414888E+00  2.74036700E+00  2.74094821E+00  2.75732315E+00
  2.80267156E+00  2.84957641E+00  2.87746103E+00  2.91565213E+00  2.92031167E+00
  2.93994325E+00  2.97288547E+00  3.00451336E+00  3.17724602E+00  3.33252468E+00
  3.34762960E+00  3.41648861E+00  3.54402973E+00  3.56471854E+00  3.70971834E+00
  3.73080009E+00  3.82212842E+00  3.82844240E+00  4.01304245E+00  4.02299614E+00
  4.66418157E+00  4.67206249E+00  4.87931472E+00  4.90915231E+00  1.47050621E+01
  1.47250575E+01  2.36728561E+01  2.36775220E+01  2.42457693E+01  2.42526862E+01
  3.55546937E+01  3.55589314E+01
Alpha MO coefficients                      R   N=       36864
 -7.22096091E-06  4.18659660E-05  1.09517755E-04 -4.07919622E-05  5.84800123E-05
 -1.02751449E-04 -5.96537776E-04  5.86663029E-05 -2.91571241E-04 -8.84672472E-04
 -1.05149227E-03  1.28159872E-03 -4.40465412E-04  8.41145326E-05 -1.05271923E-04
 -1.30559612E-04  2.69899206E-05 -1.03771938E-05  5.45469818E-06  5.46353813E-06
 -2.56064337E-04 -1.91372967E-05  1.26412625E-04  2.95158813E-04  6.07548073E-04
  1.15114330E-04 -2.77543201E-04  2.39569854E-03 -2.40237612E-03  7.30732637E-04
  1.35091937E-03 -7.60948248E-05  3.53971026E-04  1.42948731E-04 -5.25304797E-04
  1.16775053E-04 -7.22096105E-06  4.18659667E-05 -1.09517756E-04  4.07919600E-05
  5.84800121E-05 -1.02751454E-04  5.96537786E-04 -5.86662884E-05 -2.91571240E-04
 -8.84672442E-04  1.05149226E-03 -1.28159874E-03 -4.40465420E-04  8.41145326E-05
  1.05271920E-04  1.30559616E-04  2.69899148E-05 -1.03772015E-05  5.45469801E-06
  5.46353818E-06  2.56064331E-04  1.91372964E-05  1.26412622E-04  2.95158807E-04