Title Card Required                                                     
SP        UB3LYP                                                      6-311G(d,p)         
Number of atoms                            I               16
Info1-9                                    I   N=           9
          23          23           0           0           0         110
           1          18        -502
Full Title                                 C   N=           2
Title Card Required     
Route                                      C   N=           4
#p ub3lyp/6-311g(d,p) nosymm density=current    
Charge                                     I                0
Multiplicity                               I                3
Number of electrons                        I               56
Number of alpha electrons                  I               29
Number of beta electrons                   I               27
Number of basis functions                  I              192
Number of independent functions            I              192
Number of point charges in /Mol/           I                0
Number of translation vectors              I                0
Atomic numbers                             I   N=          16
           6           6           6           6           1           1
           1           1           1           1           1           1
           5           7           7           5
Nuclear charges                            R   N=          16
  6.00000000E+00  6.00000000E+00  6.00000000E+00  6.00000000E+00  1.00000000E+00
  1.00000000E+00  1.00000000E+00  1.00000000E+00  1.00000000E+00  1.00000000E+00
  1.00000000E+00  1.00000000E+00  5.00000000E+00  7.00000000E+00  7.00000000E+00
  5.00000000E+00
Current cartesian coordinates              R   N=          48
  6.43527334E-02  3.44461546E+00  0.00000000E+00 -2.57666236E+00 -2.59760619E+00
  0.00000000E+00 -6.43527334E-02 -3.44461546E+00  0.00000000E+00  2.57666236E+00
  2.59760619E+00  0.00000000E+00 -4.04854169E+00 -4.02649048E+00  0.00000000E+00
 -5.41119107E+00 -2.31909080E-01  0.00000000E+00 -4.28347811E+00  3.85532664E+00
  0.00000000E+00  2.71345774E-02  5.50352309E+00  0.00000000E+00  4.04854169E+00
  4.02649048E+00  0.00000000E+00  5.41119107E+00  2.31909080E-01  0.00000000E+00
  4.28347811E+00 -3.85532664E+00  0.00000000E+00 -2.71345774E-02 -5.50352309E+00
  0.00000000E+00 -2.57666236E+00  2.37393065E+00  0.00000000E+00 -3.49763361E+00
 -2.09047173E-01  0.00000000E+00  3.49763361E+00  2.09047173E-01  0.00000000E+00
  2.57666236E+00 -2.37393065E+00  0.00000000E+00
Number of symbols in /Mol/                 I                0
Force Field                                I                0
Atom Types                                 C   N=          16
                                                            
                                                            
                                                            
            
Int Atom Types                             I   N=          16
           0           0           0           0           0           0
           0           0           0           0           0           0
           0           0           0           0
MM charges                                 R   N=          16
  0.00000000E+00  0.00000000E+00  0.00000000E+00  0.00000000E+00  0.00000000E+00
  0.00000000E+00  0.00000000E+00  0.00000000E+00  0.00000000E+00  0.00000000E+00
  0.00000000E+00  0.00000000E+00  0.00000000E+00  0.00000000E+00  0.00000000E+00
  0.00000000E+00
Integer atomic weights                     I   N=          16
          12          12          12          12           1           1
           1           1           1           1           1           1
          11          14          14          11
Real atomic weights                        R   N=          16
  1.20000000E+01  1.20000000E+01  1.20000000E+01  1.20000000E+01  1.00782504E+00
  1.00782504E+00  1.00782504E+00  1.00782504E+00  1.00782504E+00  1.00782504E+00
  1.00782504E+00  1.00782504E+00  1.10093053E+01  1.40030740E+01  1.40030740E+01
  1.10093053E+01
Atom fragment info                         I   N=          16
           0           0           0           0           0           0
           0           0           0           0           0           0
           0           0           0           0
Atom residue num                           I   N=          16
           0           0           0           0           0           0
           0           0           0           0           0           0
           0           0           0           0
Nuclear spins                              I   N=          16
           0           0           0           0           1           1
           1           1           1           1           1           1
           3           2           2           3
Nuclear ZEff                               R   N=          16
 -3.60000000E+00 -3.60000000E+00 -3.60000000E+00 -3.60000000E+00 -1.00000000E+00
 -1.00000000E+00 -1.00000000E+00 -1.00000000E+00 -1.00000000E+00 -1.00000000E+00
 -1.00000000E+00 -1.00000000E+00 -2.75000000E+00 -4.55000000E+00 -4.55000000E+00
 -2.75000000E+00
Nuclear ZNuc                               R   N=          16
  6.00000000E+00  6.00000000E+00  6.00000000E+00  6.00000000E+00  1.00000000E+00
  1.00000000E+00  1.00000000E+00  1.00000000E+00  1.00000000E+00  1.00000000E+00
  1.00000000E+00  1.00000000E+00  5.00000000E+00  7.00000000E+00  7.00000000E+00
  5.00000000E+00
Nuclear QMom                               R   N=          16
  0.00000000E+00  0.00000000E+00  0.00000000E+00  0.00000000E+00  0.00000000E+00
  0.00000000E+00  0.00000000E+00  0.00000000E+00  0.00000000E+00  0.00000000E+00
  0.00000000E+00  0.00000000E+00  4.05900000E+00  2.04400000E+00  2.04400000E+00
  4.05900000E+00
Nuclear GFac                               R   N=          16
  0.00000000E+00  0.00000000E+00  0.00000000E+00  0.00000000E+00  2.79284600E+00
  2.79284600E+00  2.79284600E+00  2.79284600E+00  2.79284600E+00  2.79284600E+00
  2.79284600E+00  2.79284600E+00  2.68863700E+00  4.03761000E-01  4.03761000E-01
  2.68863700E+00
MicOpt                                     I   N=          16
          -1          -1          -1          -1          -1          -1
          -1          -1          -1          -1          -1          -1
          -1          -1          -1          -1
Number of residues                         I                0
Number of secondary structures             I                0
Number of contracted shells                I               72
Number of primitive shells                 I              144
Pure/Cartesian d shells                    I                0
Pure/Cartesian f shells                    I                0
Highest angular momentum                   I                2
Largest degree of contraction              I                6
Shell types                                I   N=          72
           0          -1          -1          -1          -2           0
          -1          -1          -1          -2           0          -1
          -1          -1          -2           0          -1          -1
          -1          -2           0           0           0           1
           0           0           0           1           0           0
           0           1           0           0           0           1
           0           0           0           1           0           0
           0           1           0           0           0           1
           0           0           0           1           0          -1
          -1          -1          -2           0          -1          -1
          -1          -2           0          -1          -1          -1
          -2           0          -1          -1          -1          -2
Number of primitives per shell             I   N=          72
           6           3           1           1           1           6
           3           1           1           1           6           3
           1           1           1           6           3           1
           1           1           3           1           1           1
           3           1           1           1           3           1
           1           1           3           1           1           1
           3           1           1           1           3           1
           1           1           3           1           1           1
           3           1           1           1           6           3
           1           1           1           6           3           1
           1           1           6           3           1           1
           1           6           3           1           1           1
Shell to atom map                          I   N=          72
           1           1           1           1           1           2
           2           2           2           2           3           3
           3           3           3           4           4           4
           4           4           5           5           5           5
           6           6           6           6           7           7
           7           7           8           8           8           8
           9           9           9           9          10          10
          10          10          11          11          11          11
          12          12          12          12          13          13
          13          13          13          14          14          14
          14          14          15          15          15          15
          15          16          16          16          16          16
Primitive exponents                        R   N=         144
  4.56324000E+03  6.82024000E+02  1.54973000E+02  4.44553000E+01  1.30290000E+01
  1.82773000E+00  2.09642000E+01  4.80331000E+00  1.45933000E+00  4.83456000E-01
  1.45585000E-01  6.26000000E-01  4.56324000E+03  6.82024000E+02  1.54973000E+02
  4.44553000E+01  1.30290000E+01  1.82773000E+00  2.09642000E+01  4.80331000E+00
  1.45933000E+00  4.83456000E-01  1.45585000E-01  6.26000000E-01  4.56324000E+03
  6.82024000E+02  1.54973000E+02  4.44553000E+01  1.30290000E+01  1.82773000E+00
  2.09642000E+01  4.80331000E+00  1.45933000E+00  4.83456000E-01  1.45585000E-01
  6.26000000E-01  4.56324000E+03  6.82024000E+02  1.54973000E+02  4.44553000E+01
  1.30290000E+01  1.82773000E+00  2.09642000E+01  4.80331000E+00  1.45933000E+00
  4.83456000E-01  1.45585000E-01  6.26000000E-01  3.38650000E+01  5.09479000E+00
  1.15879000E+00  3.25840000E-01  1.02741000E-01  7.50000000E-01  3.38650000E+01
  5.09479000E+00  1.15879000E+00  3.25840000E-01  1.02741000E-01  7.50000000E-01
  3.38650000E+01  5.09479000E+00  1.15879000E+00  3.25840000E-01  1.02741000E-01
  7.50000000E-01  3.38650000E+01  5.09479000E+00  1.15879000E+00  3.25840000E-01
  1.02741000E-01  7.50000000E-01  3.38650000E+01  5.09479000E+00  1.15879000E+00
  3.25840000E-01  1.02741000E-01  7.50000000E-01  3.38650000E+01  5.09479000E+00
  1.15879000E+00  3.25840000E-01  1.02741000E-01  7.50000000E-01  3.38650000E+01
  5.09479000E+00  1.15879000E+00  3.25840000E-01  1.02741000E-01  7.50000000E-01
  3.38650000E+01  5.09479000E+00  1.15879000E+00  3.25840000E-01  1.02741000E-01
  7.50000000E-01  2.85889000E+03  4.28140000E+02  9.75282000E+01  2.79693000E+01
  8.21577000E+00  1.11278000E+00  1.32415000E+01  3.00166000E+00  9.12856000E-01
  3.15454000E-01  9.88563000E-02  4.01000000E-01  6.29348000E+03  9.49044000E+02
  2.18776000E+02  6.36916000E+01  1.88282000E+01  2.72023000E+00  3.06331000E+01
  7.02614000E+00  2.11205000E+00  6.84009000E-01  2.00878000E-01  9.13000000E-01
  6.29348000E+03  9.49044000E+02  2.18776000E+02  6.36916000E+01  1.88282000E+01
  2.72023000E+00  3.06331000E+01  7.02614000E+00  2.11205000E+00  6.84009000E-01
  2.00878000E-01  9.13000000E-01  2.85889000E+03  4.28140000E+02  9.75282000E+01
  2.79693000E+01  8.21577000E+00  1.11278000E+00  1.32415000E+01  3.00166000E+00
  9.12856000E-01  3.15454000E-01  9.88563000E-02  4.01000000E-01
Contraction coefficients                   R   N=         144
  1.96665025E-03  1.52306019E-02  7.61269097E-02  2.60801033E-01  6.16462078E-01
  2.21006028E-01  1.14660081E-01  9.19999648E-01 -3.03068213E-03  1.00000000E+00
  1.00000000E+00  1.00000000E+00  1.96665025E-03  1.52306019E-02  7.61269097E-02
  2.60801033E-01  6.16462078E-01  2.21006028E-01  1.14660081E-01  9.19999648E-01
 -3.03068213E-03  1.00000000E+00  1.00000000E+00  1.00000000E+00  1.96665025E-03
  1.52306019E-02  7.61269097E-02  2.60801033E-01  6.16462078E-01  2.21006028E-01
  1.14660081E-01  9.19999648E-01 -3.03068213E-03  1.00000000E+00  1.00000000E+00
  1.00000000E+00  1.96665025E-03  1.52306019E-02  7.61269097E-02  2.60801033E-01
  6.16462078E-01  2.21006028E-01  1.14660081E-01  9.19999648E-01 -3.03068213E-03
  1.00000000E+00  1.00000000E+00  1.00000000E+00  2.54938145E-02  1.90373109E-01
  8.52161486E-01  1.00000000E+00  1.00000000E+00  1.00000000E+00  2.54938145E-02
  1.90373109E-01  8.52161486E-01  1.00000000E+00  1.00000000E+00  1.00000000E+00
  2.54938145E-02  1.90373109E-01  8.52161486E-01  1.00000000E+00  1.00000000E+00
  1.00000000E+00  2.54938145E-02  1.90373109E-01  8.52161486E-01  1.00000000E+00
  1.00000000E+00  1.00000000E+00  2.54938145E-02  1.90373109E-01  8.52161486E-01
  1.00000000E+00  1.00000000E+00  1.00000000E+00  2.54938145E-02  1.90373109E-01
  8.52161486E-01  1.00000000E+00  1.00000000E+00  1.00000000E+00  2.54938145E-02
  1.90373109E-01  8.52161486E-01  1.00000000E+00  1.00000000E+00  1.00000000E+00
  2.54938145E-02  1.90373109E-01  8.52161486E-01  1.00000000E+00  1.00000000E+00
  1.00000000E+00  2.15374907E-03  1.65822928E-02  8.21869644E-02  2.76617880E-01
  6.29315727E-01  1.73769925E-01  1.17442942E-01  9.18001549E-01 -2.65104870E-03
  1.00000000E+00  1.00000000E+00  1.00000000E+00  1.96978815E-03  1.49612859E-02
  7.35005308E-02  2.48936766E-01  6.02459433E-01  2.56201759E-01  1.11906080E-01
  9.21666655E-01 -2.56919183E-03  1.00000000E+00  1.00000000E+00  1.00000000E+00
  1.96978815E-03  1.49612859E-02  7.35005308E-02  2.48936766E-01  6.02459433E-01
  2.56201759E-01  1.11906080E-01  9.21666655E-01 -2.56919183E-03  1.00000000E+00
  1.00000000E+00  1.00000000E+00  2.15374907E-03  1.65822928E-02  8.21869644E-02
  2.76617880E-01  6.29315727E-01  1.73769925E-01  1.17442942E-01  9.18001549E-01
 -2.65104870E-03  1.00000000E+00  1.00000000E+00  1.00000000E+00
P(S=P) Contraction coefficients            R   N=         144
  0.00000000E+00  0.00000000E+00  0.00000000E+00  0.00000000E+00  0.00000000E+00
  0.00000000E+00  4.02486927E-02  2.37593957E-01  8.15853851E-01  1.00000000E+00
  1.00000000E+00  0.00000000E+00  0.00000000E+00  0.00000000E+00  0.00000000E+00
  0.00000000E+00  0.00000000E+00  0.00000000E+00  4.02486927E-02  2.37593957E-01
  8.15853851E-01  1.00000000E+00  1.00000000E+00  0.00000000E+00  0.00000000E+00
  0.00000000E+00  0.00000000E+00  0.00000000E+00  0.00000000E+00  0.00000000E+00
  4.02486927E-02  2.37593957E-01  8.15853851E-01  1.00000000E+00  1.00000000E+00
  0.00000000E+00  0.00000000E+00  0.00000000E+00  0.00000000E+00  0.00000000E+00
  0.00000000E+00  0.00000000E+00  4.02486927E-02  2.37593957E-01  8.15853851E-01
  1.00000000E+00  1.00000000E+00  0.00000000E+00  0.00000000E+00  0.00000000E+00
  0.00000000E+00  0.00000000E+00  0.00000000E+00  0.00000000E+00  0.00000000E+00
  0.00000000E+00  0.00000000E+00  0.00000000E+00  0.00000000E+00  0.00000000E+00
  0.00000000E+00  0.00000000E+00  0.00000000E+00  0.00000000E+00  0.00000000E+00
  0.00000000E+00  0.00000000E+00  0.00000000E+00  0.00000000E+00  0.00000000E+00
  0.00000000E+00  0.00000000E+00  0.00000000E+00  0.00000000E+00  0.00000000E+00
  0.00000000E+00  0.00000000E+00  0.00000000E+00  0.00000000E+00  0.00000000E+00
  0.00000000E+00  0.00000000E+00  0.00000000E+00  0.00000000E+00  0.00000000E+00
  0.00000000E+00  0.00000000E+00  0.00000000E+00  0.00000000E+00  0.00000000E+00
  0.00000000E+00  0.00000000E+00  0.00000000E+00  0.00000000E+00  0.00000000E+00
  0.00000000E+00  0.00000000E+00  0.00000000E+00  0.00000000E+00  0.00000000E+00
  0.00000000E+00  0.00000000E+00  4.18099989E-02  2.36574994E-01  8.16213978E-01
  1.00000000E+00  1.00000000E+00  0.00000000E+00  0.00000000E+00  0.00000000E+00
  0.00000000E+00  0.00000000E+00  0.00000000E+00  0.00000000E+00  3.83119186E-02
  2.37403116E-01  8.17592398E-01  1.00000000E+00  1.00000000E+00  0.00000000E+00
  0.00000000E+00  0.00000000E+00  0.00000000E+00  0.00000000E+00  0.00000000E+00
  0.00000000E+00  3.83119186E-02  2.37403116E-01  8.17592398E-01  1.00000000E+00
  1.00000000E+00  0.00000000E+00  0.00000000E+00  0.00000000E+00  0.00000000E+00
  0.00000000E+00  0.00000000E+00  0.00000000E+00  4.18099989E-02  2.36574994E-01
  8.16213978E-01  1.00000000E+00  1.00000000E+00  0.00000000E+00
Coordinates of each shell                  R   N=         216
  6.43527334E-02  3.44461546E+00  0.00000000E+00  6.43527334E-02  3.44461546E+00
  0.00000000E+00  6.43527334E-02  3.44461546E+00  0.00000000E+00  6.43527334E-02
  3.44461546E+00  0.00000000E+00  6.43527334E-02  3.44461546E+00  0.00000000E+00
 -2.57666236E+00 -2.59760619E+00  0.00000000E+00 -2.57666236E+00 -2.59760619E+00
  0.00000000E+00 -2.57666236E+00 -2.59760619E+00  0.00000000E+00 -2.57666236E+00
 -2.59760619E+00  0.00000000E+00 -2.57666236E+00 -2.59760619E+00  0.00000000E+00
 -6.43527334E-02 -3.44461546E+00  0.00000000E+00 -6.43527334E-02 -3.44461546E+00
  0.00000000E+00 -6.43527334E-02 -3.44461546E+00  0.00000000E+00 -6.43527334E-02
 -3.44461546E+00  0.00000000E+00 -6.43527334E-02 -3.44461546E+00  0.00000000E+00
  2.57666236E+00  2.59760619E+00  0.00000000E+00  2.57666236E+00  2.59760619E+00
  0.00000000E+00  2.57666236E+00  2.59760619E+00  0.00000000E+00  2.57666236E+00
  2.59760619E+00  0.00000000E+00  2.57666236E+00  2.59760619E+00  0.00000000E+00
 -4.04854169E+00 -4.02649048E+00  0.00000000E+00 -4.04854169E+00 -4.02649048E+00
  0.00000000E+00 -4.04854169E+00 -4.02649048E+00  0.00000000E+00 -4.04854169E+00
 -4.02649048E+00  0.00000000E+00 -5.41119107E+00 -2.31909080E-01  0.00000000E+00
 -5.41119107E+00 -2.31909080E-01  0.00000000E+00 -5.41119107E+00 -2.31909080E-01
  0.00000000E+00 -5.41119107E+00 -2.31909080E-01  0.00000000E+00 -4.28347811E+00
  3.85532664E+00  0.00000000E+00 -4.28347811E+00  3.85532664E+00  0.00000000E+00
 -4.28347811E+00  3.85532664E+00  0.00000000E+00 -4.28347811E+00  3.85532664E+00
  0.00000000E+00  2.71345774E-02  5.50352309E+00  0.00000000E+00  2.71345774E-02
  5.50352309E+00  0.00000000E+00  2.71345774E-02  5.50352309E+00  0.00000000E+00
  2.71345774E-02  5.50352309E+00  0.00000000E+00  4.04854169E+00  4.02649048E+00
  0.00000000E+00  4.04854169E+00  4.02649048E+00  0.00000000E+00  4.04854169E+00
  4.02649048E+00  0.00000000E+00  4.04854169E+00  4.02649048E+00  0.00000000E+00
  5.41119107E+00  2.31909080E-01  0.00000000E+00  5.41119107E+00  2.31909080E-01
  0.00000000E+00  5.41119107E+00  2.31909080E-01  0.00000000E+00  5.41119107E+00
  2.31909080E-01  0.00000000E+00  4.28347811E+00 -3.85532664E+00  0.00000000E+00
  4.28347811E+00 -3.85532664E+00  0.00000000E+00  4.28347811E+00 -3.85532664E+00
  0.00000000E+00  4.28347811E+00 -3.85532664E+00  0.00000000E+00 -2.71345774E-02
 -5.50352309E+00  0.00000000E+00 -2.71345774E-02 -5.50352309E+00  0.00000000E+00
 -2.71345774E-02 -5.50352309E+00  0.00000000E+00 -2.71345774E-02 -5.50352309E+00
  0.00000000E+00 -2.57666236E+00  2.37393065E+00  0.00000000E+00 -2.57666236E+00
  2.37393065E+00  0.00000000E+00 -2.57666236E+00  2.37393065E+00  0.00000000E+00
 -2.57666236E+00  2.37393065E+00  0.00000000E+00 -2.57666236E+00  2.37393065E+00
  0.00000000E+00 -3.49763361E+00 -2.09047173E-01  0.00000000E+00 -3.49763361E+00
 -2.09047173E-01  0.00000000E+00 -3.49763361E+00 -2.09047173E-01  0.00000000E+00
 -3.49763361E+00 -2.09047173E-01  0.00000000E+00 -3.49763361E+00 -2.09047173E-01
  0.00000000E+00  3.49763361E+00  2.09047173E-01  0.00000000E+00  3.49763361E+00
  2.09047173E-01  0.00000000E+00  3.49763361E+00  2.09047173E-01  0.00000000E+00
  3.49763361E+00  2.09047173E-01  0.00000000E+00  3.49763361E+00  2.09047173E-01
  0.00000000E+00  2.57666236E+00 -2.37393065E+00  0.00000000E+00  2.57666236E+00
 -2.37393065E+00  0.00000000E+00  2.57666236E+00 -2.37393065E+00  0.00000000E+00
  2.57666236E+00 -2.37393065E+00  0.00000000E+00  2.57666236E+00 -2.37393065E+00
  0.00000000E+00
Num ILSW                                   I              100
ILSW                                       I   N=         100
           1           0           0           0           2           0
           0           0           0           0         402          -1
           5           0           0           0           0           0
           0           0           0           0           0           0
           1           1           0           0           0           0
           0           0      100000           0          -1           0
           0           0           0           0           0           0
           0           0           0           1           0           0
           0 -2000000000           1           0           0           0
           0           0           4          52           0           0
           0           0           5           0           0           0
           0           0           0          16           0           1
           0           0           0           0           0           0
           0           0           0           0           0           0
           0           0           0           0           0           0
           0           0           0           0           0           0
           0           0           0           0
Num RLSW                                   I               52
RLSW                                       R   N=          52
  8.00000000E-01  7.20000000E-01  1.00000000E+00  8.10000000E-01  2.00000000E-01
  0.00000000E+00  0.00000000E+00  1.00000000E+00  0.00000000E+00  0.00000000E+00
  0.00000000E+00  0.00000000E+00  1.00000000E+00  0.00000000E+00  0.00000000E+00
  0.00000000E+00  0.00000000E+00  1.00000000E+00  0.00000000E+00  0.00000000E+00
  0.00000000E+00  0.00000000E+00  1.00000000E+00  0.00000000E+00  0.00000000E+00
  0.00000000E+00  0.00000000E+00  1.00000000E+00  0.00000000E+00  0.00000000E+00
  0.00000000E+00  0.00000000E+00  1.00000000E+00  0.00000000E+00  0.00000000E+00
  0.00000000E+00  0.00000000E+00  0.00000000E+00  1.00000000E+00  1.00000000E+00
  0.00000000E+00  1.00000000E+00  0.00000000E+00  0.00000000E+00  0.00000000E+00
  0.00000000E+00  0.00000000E+00  0.00000000E+00  0.00000000E+00  0.00000000E+00
  0.00000000E+00  0.00000000E+00
MxBond                                     I                3
NBond                                      I   N=          16
           3           3           3           3           1           1
           1           1           1           1           1           1
           3           3           3           3
IBond                                      I   N=          48
           4           8          13           3           5          14
           2          12          16           1           9          15
           2           0           0          14           0           0
          13           0           0           1           0           0
           4           0           0          15           0           0
          16           0           0           3           0           0
           1           7          14           2           6          13
           4          10          16           3          11          15
RBond                                      R   N=          48
  1.50000000E+00  1.00000000E+00  1.00000000E+00  1.50000000E+00  1.00000000E+00
  1.50000000E+00  1.50000000E+00  1.00000000E+00  1.00000000E+00  1.50000000E+00
  1.00000000E+00  1.50000000E+00  1.00000000E+00  0.00000000E+00  0.00000000E+00
  1.00000000E+00  0.00000000E+00  0.00000000E+00  1.00000000E+00  0.00000000E+00
  0.00000000E+00  1.00000000E+00  0.00000000E+00  0.00000000E+00  1.00000000E+00
  0.00000000E+00  0.00000000E+00  1.00000000E+00  0.00000000E+00  0.00000000E+00
  1.00000000E+00  0.00000000E+00  0.00000000E+00  1.00000000E+00  0.00000000E+00
  0.00000000E+00  1.00000000E+00  1.00000000E+00  1.00000000E+00  1.50000000E+00
  1.00000000E+00  1.00000000E+00  1.50000000E+00  1.00000000E+00  1.00000000E+00
  1.00000000E+00  1.00000000E+00  1.00000000E+00
Virial Ratio                               R      2.004352038585322E+00
SCF Energy                                 R     -3.165040002269458E+02
Total Energy                               R     -3.165040002269458E+02
S**2                                       R      2.003420704037442E+00
S**2 after annihilation                    R      2.000007398595522E+00
RMS Density                                R      6.891671131849781E-09
Job Status                                 I                1
Nuclear derivative order                   I                0
External E-field                           R   N=          35
  0.00000000E+00  0.00000000E+00  0.00000000E+00  0.00000000E+00  0.00000000E+00
  0.00000000E+00  0.00000000E+00  0.00000000E+00  0.00000000E+00  0.00000000E+00
  0.00000000E+00  0.00000000E+00  0.00000000E+00  0.00000000E+00  0.00000000E+00
  0.00000000E+00  0.00000000E+00  0.00000000E+00  0.00000000E+00  0.00000000E+00
  0.00000000E+00  0.00000000E+00  0.00000000E+00  0.00000000E+00  0.00000000E+00
  0.00000000E+00  0.00000000E+00  0.00000000E+00  0.00000000E+00  0.00000000E+00
  0.00000000E+00  0.00000000E+00  0.00000000E+00  0.00000000E+00  0.00000000E+00
IOpCl                                      I                1
IROHF                                      I                0
Alpha Orbital Energies                     R   N=         192
 -1.43578926E+01 -1.43578921E+01 -1.02193094E+01 -1.02193074E+01 -1.01670624E+01
 -1.01670596E+01 -6.71686493E+00 -6.71686470E+00 -9.45239802E-01 -9.40985999E-01
 -7.55346335E-01 -7.45862631E-01 -6.34399253E-01 -6.00642641E-01 -5.52252338E-01
 -5.42935262E-01 -5.20846106E-01 -4.71278431E-01 -4.27841395E-01 -4.25503224E-01
 -4.05106420E-01 -3.87479924E-01 -3.73493661E-01 -3.45487062E-01 -3.26584686E-01
 -3.23086177E-01 -2.88118494E-01 -2.33762240E-01 -1.39981080E-01 -1.36241365E-02
  1.79049715E-02  3.06295100E-02  4.92948539E-02  6.94395089E-02  8.79030478E-02
  1.13440110E-01  1.13909121E-01  1.18337117E-01  1.45038834E-01  1.47013670E-01
  1.82388938E-01  2.18025237E-01  2.25619651E-01  2.33855937E-01  2.50619997E-01
  2.78469441E-01  2.80236675E-01  2.85549389E-01  2.98623710E-01  3.16232117E-01
  3.32087884E-01  3.43750520E-01  3.46498937E-01  3.55842232E-01  4.08307583E-01
  4.15372245E-01  4.19405154E-01  4.30827064E-01  4.44468322E-01  4.45047768E-01
  4.94526261E-01  5.18415730E-01  5.23443137E-01  5.32630757E-01  5.52576182E-01
  5.54179214E-01  5.68993933E-01  5.76872570E-01  6.11439182E-01  6.35844756E-01
  6.56406953E-01  6.82497224E-01  6.92848970E-01  7.08008810E-01  7.34671433E-01
  7.35767374E-01  7.45358687E-01  7.47979493E-01  7.93182571E-01  8.06138377E-01
  8.07212354E-01  8.09351747E-01  8.14179137E-01  8.61087283E-01  8.67223619E-01
  9.43040515E-01  9.43478604E-01  9.64661911E-01  1.03554533E+00  1.04118106E+00
  1.04587507E+00  1.05897013E+00  1.08853985E+00  1.10164164E+00  1.15463796E+00
  1.16290560E+00  1.17238100E+00  1.19162170E+00  1.24711360E+00  1.30214245E+00
  1.40685834E+00  1.41285893E+00  1.42933165E+00  1.43852480E+00  1.43855504E+00
  1.47108605E+00  1.48691829E+00  1.51008110E+00  1.54566312E+00  1.57275324E+00
  1.63390771E+00  1.64018573E+00  1.68226103E+00  1.68410105E+00  1.68584434E+00
  1.68621169E+00  1.73694242E+00  1.76355208E+00  1.78101583E+00  1.81970117E+00
  1.82171735E+00  1.82216036E+00  1.82935404E+00  1.85515968E+00  1.86541411E+00
  1.89980457E+00  1.94178544E+00  1.94448412E+00  1.97031157E+00  1.98439722E+00
  1.99700509E+00  2.01724176E+00  2.04069446E+00  2.06703853E+00  2.08082153E+00
  2.12577482E+00  2.25118095E+00  2.27987641E+00  2.28596342E+00  2.29268991E+00
  2.38837177E+00  2.41440276E+00  2.42116190E+00  2.42222498E+00  2.44987479E+00
  2.48328740E+00  2.52068533E+00  2.53851611E+00  2.55862939E+00  2.57283781E+00
  2.58254277E+00  2.61147746E+00  2.64352637E+00  2.65688945E+00  2.69167580E+00
  2.69480224E+00  2.69759904E+00  2.74005744E+00  2.74006660E+00  2.77881856E+00
  2.78255730E+00  2.84007091E+00  2.84651528E+00  2.87777346E+00  2.92256056E+00
  2.93784263E+00  2.95285986E+00  2.96762103E+00  3.20256645E+00  3.28814513E+00
  3.29648778E+00  3.36225101E+00  3.55906083E+00  3.60161377E+00  3.74291910E+00
  3.75119585E+00  3.76025374E+00  3.77181807E+00  4.06177145E+00  4.07674526E+00
  4.64015635E+00  4.64254255E+00  4.90436341E+00  5.00007911E+00  1.47337408E+01
  1.47569339E+01  2.37500446E+01  2.37539844E+01  2.40614709E+01  2.40703778E+01
  3.55411085E+01  3.55451337E+01
Beta Orbital Energies                      R   N=         192
 -1.43543983E+01 -1.43543978E+01 -1.02149488E+01 -1.02149485E+01 -1.01626118E+01
 -1.01626114E+01 -6.71467784E+00 -6.71467491E+00 -9.34921813E-01 -9.30707528E-01
 -7.39644858E-01 -7.30482814E-01 -6.22924093E-01 -5.90972556E-01 -5.48855276E-01
 -5.37144754E-01 -5.13767302E-01 -4.64062047E-01 -4.23470551E-01 -4.19575976E-01
 -3.73254373E-01 -3.68316365E-01 -3.54788213E-01 -3.40848739E-01 -3.23386609E-01
 -3.19469793E-01 -2.37402868E-01 -1.54765341E-01 -6.90808599E-02  1.92979104E-02
  3.13993748E-02  3.16586434E-02  7.08299157E-02  8.33120855E-02  8.91519984E-02
  1.15232449E-01  1.21863443E-01  1.43355578E-01  1.49209767E-01  1.53046040E-01
  1.85091272E-01  2.21148552E-01  2.31716640E-01  2.40072856E-01  2.55806671E-01
  2.82625395E-01  2.84512199E-01  3.04048333E-01  3.04538638E-01  3.31262376E-01