Title Card Required                                                     
SP        UB3LYP                                                      6-311G(d,p)         
Number of atoms                            I               12
Info1-9                                    I   N=           9
          19          19           0           0           0         110
           1          18        -502
Full Title                                 C   N=           2
Title Card Required     
Route                                      C   N=           4
#p ub3lyp/6-311g(d,p) nosymm density=current    
Charge                                     I                0
Multiplicity                               I                3
Number of electrons                        I               42
Number of alpha electrons                  I               22
Number of beta electrons                   I               20
Number of basis functions                  I              144
Number of independent functions            I              144
Number of point charges in /Mol/           I                0
Number of translation vectors              I                0
Atomic numbers                             I   N=          12
           1           1           1           1           1           1
           5           5           5           7           7           7
Nuclear charges                            R   N=          12
  1.00000000E+00  1.00000000E+00  1.00000000E+00  1.00000000E+00  1.00000000E+00
  1.00000000E+00  5.00000000E+00  5.00000000E+00  5.00000000E+00  7.00000000E+00
  7.00000000E+00  7.00000000E+00
Current cartesian coordinates              R   N=          36
  2.81956964E+00  3.72688007E+00 -1.47465156E+00 -2.01701808E+00  4.04778391E+00
 -2.33753452E-01 -4.91194622E+00  2.30312261E-01  6.59554102E-01 -2.38728345E+00
 -3.84141259E+00 -2.36365054E-01  2.45871510E+00 -3.97270887E+00 -1.47571170E+00
  3.31510497E+00 -1.54963211E-01  2.53344621E+00  1.28938281E+00 -2.27775493E+00
 -5.77660930E-01 -2.69095677E+00  1.25965364E-01  3.13165413E-01  1.49723568E+00
  2.14735249E+00 -5.78539653E-01 -1.38138035E+00 -2.23099932E+00 -4.40797516E-02
 -1.16638054E+00  2.34988199E+00 -4.43197468E-02  2.58269436E+00 -1.20842316E-01
  7.23064017E-01
Number of symbols in /Mol/                 I                0
Force Field                                I                0
Atom Types                                 C   N=          12
                                                            
                                                            
                        
Int Atom Types                             I   N=          12
           0           0           0           0           0           0
           0           0           0           0           0           0
MM charges                                 R   N=          12
  0.00000000E+00  0.00000000E+00  0.00000000E+00  0.00000000E+00  0.00000000E+00
  0.00000000E+00  0.00000000E+00  0.00000000E+00  0.00000000E+00  0.00000000E+00
  0.00000000E+00  0.00000000E+00
Integer atomic weights                     I   N=          12
           1           1           1           1           1           1
          11          11          11          14          14          14
Real atomic weights                        R   N=          12
  1.00782504E+00  1.00782504E+00  1.00782504E+00  1.00782504E+00  1.00782504E+00
  1.00782504E+00  1.10093053E+01  1.10093053E+01  1.10093053E+01  1.40030740E+01
  1.40030740E+01  1.40030740E+01
Atom fragment info                         I   N=          12
           0           0           0           0           0           0
           0           0           0           0           0           0
Atom residue num                           I   N=          12
           0           0           0           0           0           0
           0           0           0           0           0           0
Nuclear spins                              I   N=          12
           1           1           1           1           1           1
           3           3           3           2           2           2
Nuclear ZEff                               R   N=          12
 -1.00000000E+00 -1.00000000E+00 -1.00000000E+00 -1.00000000E+00 -1.00000000E+00
 -1.00000000E+00 -2.75000000E+00 -2.75000000E+00 -2.75000000E+00 -4.55000000E+00
 -4.55000000E+00 -4.55000000E+00
Nuclear ZNuc                               R   N=          12
  1.00000000E+00  1.00000000E+00  1.00000000E+00  1.00000000E+00  1.00000000E+00
  1.00000000E+00  5.00000000E+00  5.00000000E+00  5.00000000E+00  7.00000000E+00
  7.00000000E+00  7.00000000E+00
Nuclear QMom                               R   N=          12
  0.00000000E+00  0.00000000E+00  0.00000000E+00  0.00000000E+00  0.00000000E+00
  0.00000000E+00  4.05900000E+00  4.05900000E+00  4.05900000E+00  2.04400000E+00
  2.04400000E+00  2.04400000E+00
Nuclear GFac                               R   N=          12
  2.79284600E+00  2.79284600E+00  2.79284600E+00  2.79284600E+00  2.79284600E+00
  2.79284600E+00  2.68863700E+00  2.68863700E+00  2.68863700E+00  4.03761000E-01
  4.03761000E-01  4.03761000E-01
MicOpt                                     I   N=          12
          -1          -1          -1          -1          -1          -1
          -1          -1          -1          -1          -1          -1
Number of residues                         I                0
Number of secondary structures             I                0
Number of contracted shells                I               54
Number of primitive shells                 I              108
Pure/Cartesian d shells                    I                0
Pure/Cartesian f shells                    I                0
Highest angular momentum                   I                2
Largest degree of contraction              I                6
Shell types                                I   N=          54
           0           0           0           1           0           0
           0           1           0           0           0           1
           0           0           0           1           0           0
           0           1           0           0           0           1
           0          -1          -1          -1          -2           0
          -1          -1          -1          -2           0          -1
          -1          -1          -2           0          -1          -1
          -1          -2           0          -1          -1          -1
          -2           0          -1          -1          -1          -2
Number of primitives per shell             I   N=          54
           3           1           1           1           3           1
           1           1           3           1           1           1
           3           1           1           1           3           1
           1           1           3           1           1           1
           6           3           1           1           1           6
           3           1           1           1           6           3
           1           1           1           6           3           1
           1           1           6           3           1           1
           1           6           3           1           1           1
Shell to atom map                          I   N=          54
           1           1           1           1           2           2
           2           2           3           3           3           3
           4           4           4           4           5           5
           5           5           6           6           6           6
           7           7           7           7           7           8
           8           8           8           8           9           9
           9           9           9          10          10          10
          10          10          11          11          11          11
          11          12          12          12          12          12
Primitive exponents                        R   N=         108
  3.38650000E+01  5.09479000E+00  1.15879000E+00  3.25840000E-01  1.02741000E-01
  7.50000000E-01  3.38650000E+01  5.09479000E+00  1.15879000E+00  3.25840000E-01
  1.02741000E-01  7.50000000E-01  3.38650000E+01  5.09479000E+00  1.15879000E+00
  3.25840000E-01  1.02741000E-01  7.50000000E-01  3.38650000E+01  5.09479000E+00
  1.15879000E+00  3.25840000E-01  1.02741000E-01  7.50000000E-01  3.38650000E+01
  5.09479000E+00  1.15879000E+00  3.25840000E-01  1.02741000E-01  7.50000000E-01
  3.38650000E+01  5.09479000E+00  1.15879000E+00  3.25840000E-01  1.02741000E-01
  7.50000000E-01  2.85889000E+03  4.28140000E+02  9.75282000E+01  2.79693000E+01
  8.21577000E+00  1.11278000E+00  1.32415000E+01  3.00166000E+00  9.12856000E-01
  3.15454000E-01  9.88563000E-02  4.01000000E-01  2.85889000E+03  4.28140000E+02
  9.75282000E+01  2.79693000E+01  8.21577000E+00  1.11278000E+00  1.32415000E+01
  3.00166000E+00  9.12856000E-01  3.15454000E-01  9.88563000E-02  4.01000000E-01
  2.85889000E+03  4.28140000E+02  9.75282000E+01  2.79693000E+01  8.21577000E+00
  1.11278000E+00  1.32415000E+01  3.00166000E+00  9.12856000E-01  3.15454000E-01
  9.88563000E-02  4.01000000E-01  6.29348000E+03  9.49044000E+02  2.18776000E+02
  6.36916000E+01  1.88282000E+01  2.72023000E+00  3.06331000E+01  7.02614000E+00
  2.11205000E+00  6.84009000E-01  2.00878000E-01  9.13000000E-01  6.29348000E+03
  9.49044000E+02  2.18776000E+02  6.36916000E+01  1.88282000E+01  2.72023000E+00
  3.06331000E+01  7.02614000E+00  2.11205000E+00  6.84009000E-01  2.00878000E-01
  9.13000000E-01  6.29348000E+03  9.49044000E+02  2.18776000E+02  6.36916000E+01
  1.88282000E+01  2.72023000E+00  3.06331000E+01  7.02614000E+00  2.11205000E+00
  6.84009000E-01  2.00878000E-01  9.13000000E-01
Contraction coefficients                   R   N=         108
  2.54938145E-02  1.90373109E-01  8.52161486E-01  1.00000000E+00  1.00000000E+00
  1.00000000E+00  2.54938145E-02  1.90373109E-01  8.52161486E-01  1.00000000E+00
  1.00000000E+00  1.00000000E+00  2.54938145E-02  1.90373109E-01  8.52161486E-01
  1.00000000E+00  1.00000000E+00  1.00000000E+00  2.54938145E-02  1.90373109E-01
  8.52161486E-01  1.00000000E+00  1.00000000E+00  1.00000000E+00  2.54938145E-02
  1.90373109E-01  8.52161486E-01  1.00000000E+00  1.00000000E+00  1.00000000E+00
  2.54938145E-02  1.90373109E-01  8.52161486E-01  1.00000000E+00  1.00000000E+00
  1.00000000E+00  2.15374907E-03  1.65822928E-02  8.21869644E-02  2.76617880E-01
  6.29315727E-01  1.73769925E-01  1.17442942E-01  9.18001549E-01 -2.65104870E-03
  1.00000000E+00  1.00000000E+00  1.00000000E+00  2.15374907E-03  1.65822928E-02
  8.21869644E-02  2.76617880E-01  6.29315727E-01  1.73769925E-01  1.17442942E-01
  9.18001549E-01 -2.65104870E-03  1.00000000E+00  1.00000000E+00  1.00000000E+00
  2.15374907E-03  1.65822928E-02  8.21869644E-02  2.76617880E-01  6.29315727E-01
  1.73769925E-01  1.17442942E-01  9.18001549E-01 -2.65104870E-03  1.00000000E+00
  1.00000000E+00  1.00000000E+00  1.96978815E-03  1.49612859E-02  7.35005308E-02
  2.48936766E-01  6.02459433E-01  2.56201759E-01  1.11906080E-01  9.21666655E-01
 -2.56919183E-03  1.00000000E+00  1.00000000E+00  1.00000000E+00  1.96978815E-03
  1.49612859E-02  7.35005308E-02  2.48936766E-01  6.02459433E-01  2.56201759E-01
  1.11906080E-01  9.21666655E-01 -2.56919183E-03  1.00000000E+00  1.00000000E+00
  1.00000000E+00  1.96978815E-03  1.49612859E-02  7.35005308E-02  2.48936766E-01
  6.02459433E-01  2.56201759E-01  1.11906080E-01  9.21666655E-01 -2.56919183E-03
  1.00000000E+00  1.00000000E+00  1.00000000E+00
P(S=P) Contraction coefficients            R   N=         108
  0.00000000E+00  0.00000000E+00  0.00000000E+00  0.00000000E+00  0.00000000E+00
  0.00000000E+00  0.00000000E+00  0.00000000E+00  0.00000000E+00  0.00000000E+00
  0.00000000E+00  0.00000000E+00  0.00000000E+00  0.00000000E+00  0.00000000E+00
  0.00000000E+00  0.00000000E+00  0.00000000E+00  0.00000000E+00  0.00000000E+00
  0.00000000E+00  0.00000000E+00  0.00000000E+00  0.00000000E+00  0.00000000E+00
  0.00000000E+00  0.00000000E+00  0.00000000E+00  0.00000000E+00  0.00000000E+00
  0.00000000E+00  0.00000000E+00  0.00000000E+00  0.00000000E+00  0.00000000E+00
  0.00000000E+00  0.00000000E+00  0.00000000E+00  0.00000000E+00  0.00000000E+00
  0.00000000E+00  0.00000000E+00  4.18099989E-02  2.36574994E-01  8.16213978E-01
  1.00000000E+00  1.00000000E+00  0.00000000E+00  0.00000000E+00  0.00000000E+00
  0.00000000E+00  0.00000000E+00  0.00000000E+00  0.00000000E+00  4.18099989E-02
  2.36574994E-01  8.16213978E-01  1.00000000E+00  1.00000000E+00  0.00000000E+00
  0.00000000E+00  0.00000000E+00  0.00000000E+00  0.00000000E+00  0.00000000E+00
  0.00000000E+00  4.18099989E-02  2.36574994E-01  8.16213978E-01  1.00000000E+00
  1.00000000E+00  0.00000000E+00  0.00000000E+00  0.00000000E+00  0.00000000E+00
  0.00000000E+00  0.00000000E+00  0.00000000E+00  3.83119186E-02  2.37403116E-01
  8.17592398E-01  1.00000000E+00  1.00000000E+00  0.00000000E+00  0.00000000E+00
  0.00000000E+00  0.00000000E+00  0.00000000E+00  0.00000000E+00  0.00000000E+00
  3.83119186E-02  2.37403116E-01  8.17592398E-01  1.00000000E+00  1.00000000E+00
  0.00000000E+00  0.00000000E+00  0.00000000E+00  0.00000000E+00  0.00000000E+00
  0.00000000E+00  0.00000000E+00  3.83119186E-02  2.37403116E-01  8.17592398E-01
  1.00000000E+00  1.00000000E+00  0.00000000E+00
Coordinates of each shell                  R   N=         162
  2.81956964E+00  3.72688007E+00 -1.47465156E+00  2.81956964E+00  3.72688007E+00
 -1.47465156E+00  2.81956964E+00  3.72688007E+00 -1.47465156E+00  2.81956964E+00
  3.72688007E+00 -1.47465156E+00 -2.01701808E+00  4.04778391E+00 -2.33753452E-01
 -2.01701808E+00  4.04778391E+00 -2.33753452E-01 -2.01701808E+00  4.04778391E+00
 -2.33753452E-01 -2.01701808E+00  4.04778391E+00 -2.33753452E-01 -4.91194622E+00
  2.30312261E-01  6.59554102E-01 -4.91194622E+00  2.30312261E-01  6.59554102E-01
 -4.91194622E+00  2.30312261E-01  6.59554102E-01 -4.91194622E+00  2.30312261E-01
  6.59554102E-01 -2.38728345E+00 -3.84141259E+00 -2.36365054E-01 -2.38728345E+00
 -3.84141259E+00 -2.36365054E-01 -2.38728345E+00 -3.84141259E+00 -2.36365054E-01
 -2.38728345E+00 -3.84141259E+00 -2.36365054E-01  2.45871510E+00 -3.97270887E+00
 -1.47571170E+00  2.45871510E+00 -3.97270887E+00 -1.47571170E+00  2.45871510E+00
 -3.97270887E+00 -1.47571170E+00  2.45871510E+00 -3.97270887E+00 -1.47571170E+00
  3.31510497E+00 -1.54963211E-01  2.53344621E+00  3.31510497E+00 -1.54963211E-01
  2.53344621E+00  3.31510497E+00 -1.54963211E-01  2.53344621E+00  3.31510497E+00
 -1.54963211E-01  2.53344621E+00  1.28938281E+00 -2.27775493E+00 -5.77660930E-01
  1.28938281E+00 -2.27775493E+00 -5.77660930E-01  1.28938281E+00 -2.27775493E+00
 -5.77660930E-01  1.28938281E+00 -2.27775493E+00 -5.77660930E-01  1.28938281E+00
 -2.27775493E+00 -5.77660930E-01 -2.69095677E+00  1.25965364E-01  3.13165413E-01
 -2.69095677E+00  1.25965364E-01  3.13165413E-01 -2.69095677E+00  1.25965364E-01
  3.13165413E-01 -2.69095677E+00  1.25965364E-01  3.13165413E-01 -2.69095677E+00
  1.25965364E-01  3.13165413E-01  1.49723568E+00  2.14735249E+00 -5.78539653E-01
  1.49723568E+00  2.14735249E+00 -5.78539653E-01  1.49723568E+00  2.14735249E+00
 -5.78539653E-01  1.49723568E+00  2.14735249E+00 -5.78539653E-01  1.49723568E+00
  2.14735249E+00 -5.78539653E-01 -1.38138035E+00 -2.23099932E+00 -4.40797516E-02
 -1.38138035E+00 -2.23099932E+00 -4.40797516E-02 -1.38138035E+00 -2.23099932E+00
 -4.40797516E-02 -1.38138035E+00 -2.23099932E+00 -4.40797516E-02 -1.38138035E+00
 -2.23099932E+00 -4.40797516E-02 -1.16638054E+00  2.34988199E+00 -4.43197468E-02
 -1.16638054E+00  2.34988199E+00 -4.43197468E-02 -1.16638054E+00  2.34988199E+00
 -4.43197468E-02 -1.16638054E+00  2.34988199E+00 -4.43197468E-02 -1.16638054E+00
  2.34988199E+00 -4.43197468E-02  2.58269436E+00 -1.20842316E-01  7.23064017E-01
  2.58269436E+00 -1.20842316E-01  7.23064017E-01  2.58269436E+00 -1.20842316E-01
  7.23064017E-01  2.58269436E+00 -1.20842316E-01  7.23064017E-01  2.58269436E+00
 -1.20842316E-01  7.23064017E-01
Num ILSW                                   I              100
ILSW                                       I   N=         100
           1           0           0           0           2           0
           0           0           0           0         402          -1
           5           0           0           0           0           0
           0           0           0           0           0           0
           1           1           0           0           0           0
           0           0      100000           0          -1           0
           0           0           0           0           0           0
           0           0           0           1           0           0
           0 -2000000000           1           0           0           0
           0           0           4          52           0           0
           0           0           5           0           0           0
           0           0           0          12           0           1
           0           0           0           0           0           0
           0           0           0           0           0           0
           0           0           0           0           0           0
           0           0           0           0           0           0
           0           0           0           0
Num RLSW                                   I               52
RLSW                                       R   N=          52
  8.00000000E-01  7.20000000E-01  1.00000000E+00  8.10000000E-01  2.00000000E-01
  0.00000000E+00  0.00000000E+00  1.00000000E+00  0.00000000E+00  0.00000000E+00
  0.00000000E+00  0.00000000E+00  1.00000000E+00  0.00000000E+00  0.00000000E+00
  0.00000000E+00  0.00000000E+00  1.00000000E+00  0.00000000E+00  0.00000000E+00
  0.00000000E+00  0.00000000E+00  1.00000000E+00  0.00000000E+00  0.00000000E+00
  0.00000000E+00  0.00000000E+00  1.00000000E+00  0.00000000E+00  0.00000000E+00
  0.00000000E+00  0.00000000E+00  1.00000000E+00  0.00000000E+00  0.00000000E+00
  0.00000000E+00  0.00000000E+00  0.00000000E+00  1.00000000E+00  1.00000000E+00
  0.00000000E+00  1.00000000E+00  0.00000000E+00  0.00000000E+00  0.00000000E+00
  0.00000000E+00  0.00000000E+00  0.00000000E+00  0.00000000E+00  0.00000000E+00
  0.00000000E+00  0.00000000E+00
MxBond                                     I                3
NBond                                      I   N=          12
           1           1           1           1           1           1
           3           3           3           3           3           3
IBond                                      I   N=          36
           9           0           0          11           0           0
           8           0           0          10           0           0
           7           0           0          12           0           0
           5          10          12           3          10          11
           1          11          12           4           7           8
           2           8           9           6           7           9
RBond                                      R   N=          36
  1.00000000E+00  0.00000000E+00  0.00000000E+00  1.00000000E+00  0.00000000E+00
  0.00000000E+00  1.00000000E+00  0.00000000E+00  0.00000000E+00  1.00000000E+00
  0.00000000E+00  0.00000000E+00  1.00000000E+00  0.00000000E+00  0.00000000E+00
  1.00000000E+00  0.00000000E+00  0.00000000E+00  1.00000000E+00  1.00000000E+00
  1.00000000E+00  1.00000000E+00  1.00000000E+00  1.00000000E+00  1.00000000E+00
  1.00000000E+00  1.00000000E+00  1.00000000E+00  1.00000000E+00  1.00000000E+00
  1.00000000E+00  1.00000000E+00  1.00000000E+00  1.00000000E+00  1.00000000E+00
  1.00000000E+00
Virial Ratio                               R      2.004109741878678E+00
SCF Energy                                 R     -2.425501383315484E+02
Total Energy                               R     -2.425501383315484E+02
S**2                                       R      2.006440695542221E+00
S**2 after annihilation                    R      2.000024586205521E+00
RMS Density                                R      3.525978193086981E-09
Job Status                                 I                1
Nuclear derivative order                   I                0
External E-field                           R   N=          35
  0.00000000E+00  0.00000000E+00  0.00000000E+00  0.00000000E+00  0.00000000E+00
  0.00000000E+00  0.00000000E+00  0.00000000E+00  0.00000000E+00  0.00000000E+00
  0.00000000E+00  0.00000000E+00  0.00000000E+00  0.00000000E+00  0.00000000E+00
  0.00000000E+00  0.00000000E+00  0.00000000E+00  0.00000000E+00  0.00000000E+00
  0.00000000E+00  0.00000000E+00  0.00000000E+00  0.00000000E+00  0.00000000E+00
  0.00000000E+00  0.00000000E+00  0.00000000E+00  0.00000000E+00  0.00000000E+00
  0.00000000E+00  0.00000000E+00  0.00000000E+00  0.00000000E+00  0.00000000E+00
IOpCl                                      I                1
IROHF                                      I                0
Alpha Orbital Energies                     R   N=         144
 -1.43882635E+01 -1.42974321E+01 -1.42973724E+01 -6.75166593E+00 -6.75161170E+00
 -6.73314867E+00 -9.35725120E-01 -8.62594178E-01 -8.39185477E-01 -5.89825461E-01
 -5.39709517E-01 -5.38741806E-01 -4.94773533E-01 -4.40145529E-01 -4.34812002E-01
 -4.24054083E-01 -3.75392053E-01 -3.58672610E-01 -3.37826367E-01 -3.10002635E-01
 -2.68422397E-01 -1.28143051E-01  1.53718320E-02  2.51554096E-02  5.21363133E-02
  6.16335466E-02  7.39293454E-02  1.12326241E-01  1.24647830E-01  1.30950169E-01
  1.65227352E-01  1.81723562E-01  1.99546717E-01  2.02318942E-01  2.38961633E-01
  2.48137368E-01  2.54231157E-01  3.07992152E-01  3.23280333E-01  3.27084556E-01
  3.53121685E-01  3.54886116E-01  3.81086885E-01  3.85534215E-01  4.27591166E-01
  4.47764919E-01  4.63849938E-01  4.75180347E-01  4.86534833E-01  5.12575417E-01
  5.56392241E-01  5.65050578E-01  5.73543672E-01  6.20317653E-01  6.71325912E-01
  6.72091041E-01  7.03696026E-01  7.41803464E-01  7.43371499E-01  7.93237711E-01
  8.07438224E-01  8.08738933E-01  8.45621937E-01  8.70954296E-01  9.00410265E-01
  9.10022852E-01  9.76583382E-01  9.99509789E-01  1.02394158E+00  1.05669055E+00
  1.08891460E+00  1.11635460E+00  1.15101188E+00  1.20119325E+00  1.24264995E+00
  1.25062292E+00  1.26321410E+00  1.27719187E+00  1.32494901E+00  1.37830583E+00
  1.40355564E+00  1.47915936E+00  1.51470915E+00  1.54244682E+00  1.62732506E+00
  1.64491364E+00  1.70640027E+00  1.73216885E+00  1.76611019E+00  1.78784554E+00
  1.80049529E+00  1.82505364E+00  1.85127216E+00  1.89245953E+00  1.90135450E+00
  1.94970560E+00  1.99767316E+00  1.99980973E+00  2.05447738E+00  2.06992779E+00
  2.10524566E+00  2.13181365E+00  2.14415407E+00  2.30739136E+00  2.34053920E+00
  2.35071867E+00  2.38371812E+00  2.39270176E+00  2.43952895E+00  2.48234161E+00
  2.50344515E+00  2.53659085E+00  2.54065400E+00  2.54323079E+00  2.57977449E+00
  2.61718333E+00  2.65838796E+00  2.65848635E+00  2.70154202E+00  2.70837002E+00
  2.78702270E+00  2.78961411E+00  2.85145426E+00  2.85687574E+00  2.87058200E+00
  2.93897531E+00  3.06612509E+00  3.19008038E+00  3.35297270E+00  3.78433323E+00
  3.78505476E+00  3.84954079E+00  4.28149763E+00  4.43042764E+00  4.52764126E+00
  4.65818010E+00  4.66564397E+00  4.76579409E+00  1.46027794E+01  1.46756710E+01
  1.47496179E+01  3.53892426E+01  3.55289216E+01  3.55924871E+01
Beta Orbital Energies                      R   N=         144
 -1.43700051E+01 -1.42964603E+01 -1.42964128E+01 -6.74820152E+00 -6.74815397E+00
 -6.73082846E+00 -9.02387640E-01 -8.41304114E-01 -8.35207685E-01 -5.71344853E-01
 -5.30349592E-01 -5.23753359E-01 -4.76478093E-01 -4.36465072E-01 -4.22724576E-01
 -3.98728585E-01 -3.48636219E-01 -3.47427334E-01 -3.28733446E-01 -2.62599967E-01
 -1.68888675E-01 -4.44784722E-02  4.02430405E-02  4.70647238E-02  6.29469832E-02
  7.00506632E-02  7.48375856E-02  1.18735707E-01  1.28193006E-01  1.35694007E-01
  1.76070163E-01  1.84639755E-01  2.04365716E-01  2.06442225E-01  2.57291799E-01
  2.64790013E-01  2.67004562E-01  3.18047052E-01  3.33781622E-01  3.37906096E-01
  3.62718732E-01  3.76151638E-01  3.92286011E-01  4.05545387E-01  4.34396338E-01
  4.52693638E-01  4.72760557E-01  4.80384277E-01  4.97173457E-01  5.27850828E-01
  5.59623913E-01  5.71760374E-01  5.91566545E-01  6.30032815E-01  6.75310511E-01
  6.93437131E-01  7.22730364E-01  7.46704808E-01  7.49108815E-01  8.11080205E-01
  8.14035557E-01  8.14266979E-01  8.65661444E-01  8.83183636E-01  9.06301013E-01
  9.24666121E-01  9.84101678E-01  1.01787837E+00  1.03691809E+00  1.07344151E+00
  1.09661097E+00  1.13138352E+00  1.16854745E+00  1.21173060E+00  1.25313920E+00
  1.25647187E+00  1.27342928E+00  1.29474091E+00  1.32780261E+00  1.38704692E+00
  1.41694398E+00  1.48629119E+00  1.52132458E+00  1.55673586E+00  1.63935178E+00
  1.65761159E+00  1.71892187E+00  1.74049799E+00  1.76970211E+00  1.79438226E+00
  1.81495406E+00  1.83929175E+00  1.87136645E+00  1.90575380E+00  1.90911349E+00
  1.95379372E+00  2.00011621E+00  2.01282689E+00  2.06278148E+00  2.08095996E+00
  2.11844610E+00  2.14595590E+00  2.15992109E+00  2.32675286E+00  2.35115289E+00
  2.37090248E+00  2.38828785E+00  2.39989819E+00  2.46239031E+00  2.49074016E+00
  2.51064796E+00  2.54690613E+00  2.55217773E+00  2.55678355E+00  2.59690889E+00
  2.62310950E+00  2.66513799E+00  2.66684150E+00  2.70744113E+00  2.71499812E+00
  2.79481290E+00  2.80133145E+00  2.86180941E+00  2.86335624E+00  2.88406953E+00
  2.94271926E+00  3.10140373E+00  3.19593429E+00  3.36024050E+00  3.78612116E+00
  3.81845098E+00  3.89685261E+00  4.29748340E+00  4.43773994E+00  4.54441974E+00
  4.66768630E+00  4.67118438E+00  4.76837182E+00  1.46073400E+01  1.46798648E+01
  1.47534130E+01  3.54059664E+01  3.55328460E+01  3.55935821E+01
Alpha MO coefficients                      R   N=       20736
 -7.62458340E-05 -8.46554595E-04  1.08485766E-03  1.68968947E-05  4.33046552E-04
 -2.06647323E-04 -5.68081899E-05  2.14695422E-04  2.56326392E-04  2.40735401E-05
  1.41419370E-05  1.32673127E-05  1.24524352E-07 -2.17350645E-04 -8.30130333E-04
 -6.50127060E-05  3.00435180E-06  4.46480896E-05 -5.67795482E-05  2.12930922E-04
  2.57415754E-04  2.24771983E-05 -1.64678349E-05  1.33163593E-05 -7.65366998E-05
 -8.47641978E-04  1.08667957E-03 -2.33609717E-05 -4.33231371E-04 -2.07005118E-04
 -3.57274495E-05 -2.35602381E-03  1.58827682E-05  6.48570262E-04 -3.01727815E-05
  1.74995549E-03  9.39713909E-06 -4.88541192E-05  1.51745159E-04  2.60581773E-04
  1.90690872E-04  9.48105660E-04 -1.79197656E-05 -5.36075376E-04 -4.76411598E-04
  1.69211555E-03 -2.65259452E-04  1.83326553E-03  1.13102216E-03 -2.80681413E-04
 -6.99988061E-04 -1.84392905E-04  3.47351246E-04 -6.38100729E-04 -1.40994477E-06
  4.44463344E-07  7.42990886E-07  1.16580799E-07 -4.69385375E-05  1.22751634E-04
 -2.50391322E-04  1.06974307E-05  1.50363920E-04 -1.23140498E-03 -1.66652770E-03
  7.88345756E-05  3.39430418E-04 -2.18999364E-06  1.44005879E-04 -6.77435201E-06
  9.19398258E-05 -9.04275937E-06  9.34568354E-06 -4.86610158E-05  1.26647638E-04
 -2.73457066E-04  1.90616715E-04  9.46991377E-04  3.25326426E-05  5.34909590E-04
 -4.75350192E-04  1.69128431E-03 -4.35216634E-04 -1.79789229E-03  1.12958916E-03
 -2.81303501E-04 -6.78570417E-04  2.49615029E-04  4.59285426E-04  5.61305802E-04
 -4.47012113E-05  7.25475386E-06  9.36970827E-05  1.61969932E-05 -1.62384713E-05
 -2.89178735E-04 -4.83080817E-04 -8.08546186E-05  7.43062955E-05 -2.27667144E-04
  1.00905473E-04  3.47004897E-04 -2.05174074E-04  3.44733038E-05  1.17236195E-05
  6.40283847E-05 -1.04110368E-04 -3.46486892E-05 -4.47380391E-05  7.22436617E-06
  9.16992015E-05 -2.47386038E-05 -1.63630846E-05 -2.89362089E-04 -4.73193557E-04
  1.25137865E-04  7.46924958E-05 -2.26272541E-04  6.83734891E-05 -3.58142392E-04
 -2.04582766E-04  3.42582090E-05  5.99136562E-06 -6.49867839E-05 -9.57294345E-05
  5.32325687E-05  5.57052562E-01  4.65929105E-01  1.41877764E-04 -6.92422239E-06
  2.66649700E-04  1.59173512E-02 -2.46123102E-04  1.13184374E-05  4.07449852E-04
 -7.88266475E-03  1.84309158E-03 -8.59119618E-05  2.27180123E-03  5.69357180E-04
  3.72379915E-04 -1.71344221E-05  1.15745674E-04 -1.10189562E-05 -7.75440179E-05
 -5.95730177E-04  1.79945577E-03  4.04452557E-04  4.81986219E-05 -1.07635063E-04
 -6.10669005E-05 -3.01841964E-03  3.64204763E-04 -8.51508794E-04  1.78248193E-03
 -1.99158292E-04 -1.05938833E-04 -6.54392499E-04  1.15187050E-03 -3.57002150E-04
 -2.66008932E-04  5.42883217E-05 -4.87766501E-05  3.68929480E-04  1.25536258E-04
  1.14485925E-04  1.82633564E-04  7.32938547E-06 -1.69835522E-05 -1.55977556E-04
 -5.04672223E-04 -6.05938217E-06 -6.20635370E-05 -5.59266140E-05 -5.66978215E-06
  1.85779948E-04 -1.90805824E-04  6.23560571E-05 -1.65476720E-05  3.33576744E-05
  5.63168312E-06 -2.03801940E-05  1.69950280E-04  9.97852389E-05 -4.52703406E-06
  1.58530587E-04 -6.22427687E-04 -5.54359012E-04 -7.28231281E-05 -1.71208904E-03
  7.69069960E-04 -1.22434711E-03 -2.48308215E-04  9.64571338E-06 -1.56108538E-04
 -5.79806026E-07  2.99396925E-04 -2.48866780E-04 -1.54977848E-05  3.55801079E-05
  1.35970091E-04  4.23317983E-04 -3.82910159E-05  6.95182257E-04 -5.61021869E-04
 -1.50421858E-03  1.54661845E-04  5.29668339E-04  1.73216694E-03  3.60018110E-04
 -3.18430620E-04  1.04399367E-04 -7.12647376E-05  3.89435434E-04  6.84105925E-04
 -1.34558475E-03 -2.98958857E-05  8.73263098E-05 -3.77070369E-04  1.11776856E-04
  8.81251031E-06  3.43848993E-04  1.24050721E-03 -1.77689579E-04 -5.54031305E-05
  1.87004507E-03 -1.98269500E-03 -2.17278649E-03  1.19281722E-03  2.68341763E-04
  3.19102430E-04 -5.53270713E-04 -1.12293409E-03  3.77014153E-04 -7.09887633E-02
 -5.92763723E-02  2.19657308E-05  1.57233244E-04  1.20511340E-05 -2.23203941E-03