Title Card Required                                                     
SP        RB3LYP                                                      6-311G(d,p)         
Number of atoms                            I               12
Info1-9                                    I   N=           9
          19          19           0           0           0         110
           1          18        -502
Full Title                                 C   N=           2
Title Card Required     
Route                                      C   N=           4
#p b3lyp/6-311g(d,p) nosymm density=current     
Charge                                     I                0
Multiplicity                               I                1
Number of electrons                        I               42
Number of alpha electrons                  I               21
Number of beta electrons                   I               21
Number of basis functions                  I              144
Number of independent functions            I              144
Number of point charges in /Mol/           I                0
Number of translation vectors              I                0
Atomic numbers                             I   N=          12
           1           1           1           1           1           1
           5           5           5           7           7           7
Nuclear charges                            R   N=          12
  1.00000000E+00  1.00000000E+00  1.00000000E+00  1.00000000E+00  1.00000000E+00
  1.00000000E+00  5.00000000E+00  5.00000000E+00  5.00000000E+00  7.00000000E+00
  7.00000000E+00  7.00000000E+00
Current cartesian coordinates              R   N=          36
  0.00000000E+00 -4.99416820E+00  0.00000000E+00  3.95544433E+00 -2.28367733E+00
  0.00000000E+00  4.32507665E+00  2.49708410E+00  0.00000000E+00  0.00000000E+00
  4.56735466E+00  0.00000000E+00 -4.32507665E+00  2.49708410E+00  0.00000000E+00
 -3.95544433E+00 -2.28367733E+00  0.00000000E+00 -2.37228848E+00  1.36964137E+00
  0.00000000E+00  2.37228848E+00  1.36964137E+00  0.00000000E+00  0.00000000E+00
 -2.73928463E+00  0.00000000E+00  0.00000000E+00  2.66155263E+00  0.00000000E+00
  2.30497265E+00 -1.33077726E+00  0.00000000E+00 -2.30497265E+00 -1.33077726E+00
  0.00000000E+00
Number of symbols in /Mol/                 I                0
Force Field                                I                0
Atom Types                                 C   N=          12
                                                            
                                                            
                        
Int Atom Types                             I   N=          12
           0           0           0           0           0           0
           0           0           0           0           0           0
MM charges                                 R   N=          12
  0.00000000E+00  0.00000000E+00  0.00000000E+00  0.00000000E+00  0.00000000E+00
  0.00000000E+00  0.00000000E+00  0.00000000E+00  0.00000000E+00  0.00000000E+00
  0.00000000E+00  0.00000000E+00
Integer atomic weights                     I   N=          12
           1           1           1           1           1           1
          11          11          11          14          14          14
Real atomic weights                        R   N=          12
  1.00782504E+00  1.00782504E+00  1.00782504E+00  1.00782504E+00  1.00782504E+00
  1.00782504E+00  1.10093053E+01  1.10093053E+01  1.10093053E+01  1.40030740E+01
  1.40030740E+01  1.40030740E+01
Atom fragment info                         I   N=          12
           0           0           0           0           0           0
           0           0           0           0           0           0
Atom residue num                           I   N=          12
           0           0           0           0           0           0
           0           0           0           0           0           0
Nuclear spins                              I   N=          12
           1           1           1           1           1           1
           3           3           3           2           2           2
Nuclear ZEff                               R   N=          12
 -1.00000000E+00 -1.00000000E+00 -1.00000000E+00 -1.00000000E+00 -1.00000000E+00
 -1.00000000E+00 -2.75000000E+00 -2.75000000E+00 -2.75000000E+00 -4.55000000E+00
 -4.55000000E+00 -4.55000000E+00
Nuclear ZNuc                               R   N=          12
  1.00000000E+00  1.00000000E+00  1.00000000E+00  1.00000000E+00  1.00000000E+00
  1.00000000E+00  5.00000000E+00  5.00000000E+00  5.00000000E+00  7.00000000E+00
  7.00000000E+00  7.00000000E+00
Nuclear QMom                               R   N=          12
  0.00000000E+00  0.00000000E+00  0.00000000E+00  0.00000000E+00  0.00000000E+00
  0.00000000E+00  4.05900000E+00  4.05900000E+00  4.05900000E+00  2.04400000E+00
  2.04400000E+00  2.04400000E+00
Nuclear GFac                               R   N=          12
  2.79284600E+00  2.79284600E+00  2.79284600E+00  2.79284600E+00  2.79284600E+00
  2.79284600E+00  2.68863700E+00  2.68863700E+00  2.68863700E+00  4.03761000E-01
  4.03761000E-01  4.03761000E-01
MicOpt                                     I   N=          12
          -1          -1          -1          -1          -1          -1
          -1          -1          -1          -1          -1          -1
Number of residues                         I                0
Number of secondary structures             I                0
Number of contracted shells                I               54
Number of primitive shells                 I              108
Pure/Cartesian d shells                    I                0
Pure/Cartesian f shells                    I                0
Highest angular momentum                   I                2
Largest degree of contraction              I                6
Shell types                                I   N=          54
           0           0           0           1           0           0
           0           1           0           0           0           1
           0           0           0           1           0           0
           0           1           0           0           0           1
           0          -1          -1          -1          -2           0
          -1          -1          -1          -2           0          -1
          -1          -1          -2           0          -1          -1
          -1          -2           0          -1          -1          -1
          -2           0          -1          -1          -1          -2
Number of primitives per shell             I   N=          54
           3           1           1           1           3           1
           1           1           3           1           1           1
           3           1           1           1           3           1
           1           1           3           1           1           1
           6           3           1           1           1           6
           3           1           1           1           6           3
           1           1           1           6           3           1
           1           1           6           3           1           1
           1           6           3           1           1           1
Shell to atom map                          I   N=          54
           1           1           1           1           2           2
           2           2           3           3           3           3
           4           4           4           4           5           5
           5           5           6           6           6           6
           7           7           7           7           7           8
           8           8           8           8           9           9
           9           9           9          10          10          10
          10          10          11          11          11          11
          11          12          12          12          12          12
Primitive exponents                        R   N=         108
  3.38650000E+01  5.09479000E+00  1.15879000E+00  3.25840000E-01  1.02741000E-01
  7.50000000E-01  3.38650000E+01  5.09479000E+00  1.15879000E+00  3.25840000E-01
  1.02741000E-01  7.50000000E-01  3.38650000E+01  5.09479000E+00  1.15879000E+00
  3.25840000E-01  1.02741000E-01  7.50000000E-01  3.38650000E+01  5.09479000E+00
  1.15879000E+00  3.25840000E-01  1.02741000E-01  7.50000000E-01  3.38650000E+01
  5.09479000E+00  1.15879000E+00  3.25840000E-01  1.02741000E-01  7.50000000E-01
  3.38650000E+01  5.09479000E+00  1.15879000E+00  3.25840000E-01  1.02741000E-01
  7.50000000E-01  2.85889000E+03  4.28140000E+02  9.75282000E+01  2.79693000E+01
  8.21577000E+00  1.11278000E+00  1.32415000E+01  3.00166000E+00  9.12856000E-01
  3.15454000E-01  9.88563000E-02  4.01000000E-01  2.85889000E+03  4.28140000E+02
  9.75282000E+01  2.79693000E+01  8.21577000E+00  1.11278000E+00  1.32415000E+01
  3.00166000E+00  9.12856000E-01  3.15454000E-01  9.88563000E-02  4.01000000E-01
  2.85889000E+03  4.28140000E+02  9.75282000E+01  2.79693000E+01  8.21577000E+00
  1.11278000E+00  1.32415000E+01  3.00166000E+00  9.12856000E-01  3.15454000E-01
  9.88563000E-02  4.01000000E-01  6.29348000E+03  9.49044000E+02  2.18776000E+02
  6.36916000E+01  1.88282000E+01  2.72023000E+00  3.06331000E+01  7.02614000E+00
  2.11205000E+00  6.84009000E-01  2.00878000E-01  9.13000000E-01  6.29348000E+03
  9.49044000E+02  2.18776000E+02  6.36916000E+01  1.88282000E+01  2.72023000E+00
  3.06331000E+01  7.02614000E+00  2.11205000E+00  6.84009000E-01  2.00878000E-01
  9.13000000E-01  6.29348000E+03  9.49044000E+02  2.18776000E+02  6.36916000E+01
  1.88282000E+01  2.72023000E+00  3.06331000E+01  7.02614000E+00  2.11205000E+00
  6.84009000E-01  2.00878000E-01  9.13000000E-01
Contraction coefficients                   R   N=         108
  2.54938145E-02  1.90373109E-01  8.52161486E-01  1.00000000E+00  1.00000000E+00
  1.00000000E+00  2.54938145E-02  1.90373109E-01  8.52161486E-01  1.00000000E+00
  1.00000000E+00  1.00000000E+00  2.54938145E-02  1.90373109E-01  8.52161486E-01
  1.00000000E+00  1.00000000E+00  1.00000000E+00  2.54938145E-02  1.90373109E-01
  8.52161486E-01  1.00000000E+00  1.00000000E+00  1.00000000E+00  2.54938145E-02
  1.90373109E-01  8.52161486E-01  1.00000000E+00  1.00000000E+00  1.00000000E+00
  2.54938145E-02  1.90373109E-01  8.52161486E-01  1.00000000E+00  1.00000000E+00
  1.00000000E+00  2.15374907E-03  1.65822928E-02  8.21869644E-02  2.76617880E-01
  6.29315727E-01  1.73769925E-01  1.17442942E-01  9.18001549E-01 -2.65104870E-03
  1.00000000E+00  1.00000000E+00  1.00000000E+00  2.15374907E-03  1.65822928E-02
  8.21869644E-02  2.76617880E-01  6.29315727E-01  1.73769925E-01  1.17442942E-01
  9.18001549E-01 -2.65104870E-03  1.00000000E+00  1.00000000E+00  1.00000000E+00
  2.15374907E-03  1.65822928E-02  8.21869644E-02  2.76617880E-01  6.29315727E-01
  1.73769925E-01  1.17442942E-01  9.18001549E-01 -2.65104870E-03  1.00000000E+00
  1.00000000E+00  1.00000000E+00  1.96978815E-03  1.49612859E-02  7.35005308E-02
  2.48936766E-01  6.02459433E-01  2.56201759E-01  1.11906080E-01  9.21666655E-01
 -2.56919183E-03  1.00000000E+00  1.00000000E+00  1.00000000E+00  1.96978815E-03
  1.49612859E-02  7.35005308E-02  2.48936766E-01  6.02459433E-01  2.56201759E-01
  1.11906080E-01  9.21666655E-01 -2.56919183E-03  1.00000000E+00  1.00000000E+00
  1.00000000E+00  1.96978815E-03  1.49612859E-02  7.35005308E-02  2.48936766E-01
  6.02459433E-01  2.56201759E-01  1.11906080E-01  9.21666655E-01 -2.56919183E-03
  1.00000000E+00  1.00000000E+00  1.00000000E+00
P(S=P) Contraction coefficients            R   N=         108
  0.00000000E+00  0.00000000E+00  0.00000000E+00  0.00000000E+00  0.00000000E+00
  0.00000000E+00  0.00000000E+00  0.00000000E+00  0.00000000E+00  0.00000000E+00
  0.00000000E+00  0.00000000E+00  0.00000000E+00  0.00000000E+00  0.00000000E+00
  0.00000000E+00  0.00000000E+00  0.00000000E+00  0.00000000E+00  0.00000000E+00
  0.00000000E+00  0.00000000E+00  0.00000000E+00  0.00000000E+00  0.00000000E+00
  0.00000000E+00  0.00000000E+00  0.00000000E+00  0.00000000E+00  0.00000000E+00
  0.00000000E+00  0.00000000E+00  0.00000000E+00  0.00000000E+00  0.00000000E+00
  0.00000000E+00  0.00000000E+00  0.00000000E+00  0.00000000E+00  0.00000000E+00
  0.00000000E+00  0.00000000E+00  4.18099989E-02  2.36574994E-01  8.16213978E-01
  1.00000000E+00  1.00000000E+00  0.00000000E+00  0.00000000E+00  0.00000000E+00
  0.00000000E+00  0.00000000E+00  0.00000000E+00  0.00000000E+00  4.18099989E-02
  2.36574994E-01  8.16213978E-01  1.00000000E+00  1.00000000E+00  0.00000000E+00
  0.00000000E+00  0.00000000E+00  0.00000000E+00  0.00000000E+00  0.00000000E+00
  0.00000000E+00  4.18099989E-02  2.36574994E-01  8.16213978E-01  1.00000000E+00
  1.00000000E+00  0.00000000E+00  0.00000000E+00  0.00000000E+00  0.00000000E+00
  0.00000000E+00  0.00000000E+00  0.00000000E+00  3.83119186E-02  2.37403116E-01
  8.17592398E-01  1.00000000E+00  1.00000000E+00  0.00000000E+00  0.00000000E+00
  0.00000000E+00  0.00000000E+00  0.00000000E+00  0.00000000E+00  0.00000000E+00
  3.83119186E-02  2.37403116E-01  8.17592398E-01  1.00000000E+00  1.00000000E+00
  0.00000000E+00  0.00000000E+00  0.00000000E+00  0.00000000E+00  0.00000000E+00
  0.00000000E+00  0.00000000E+00  3.83119186E-02  2.37403116E-01  8.17592398E-01
  1.00000000E+00  1.00000000E+00  0.00000000E+00
Coordinates of each shell                  R   N=         162
  0.00000000E+00 -4.99416820E+00  0.00000000E+00  0.00000000E+00 -4.99416820E+00
  0.00000000E+00  0.00000000E+00 -4.99416820E+00  0.00000000E+00  0.00000000E+00
 -4.99416820E+00  0.00000000E+00  3.95544433E+00 -2.28367733E+00  0.00000000E+00
  3.95544433E+00 -2.28367733E+00  0.00000000E+00  3.95544433E+00 -2.28367733E+00
  0.00000000E+00  3.95544433E+00 -2.28367733E+00  0.00000000E+00  4.32507665E+00
  2.49708410E+00  0.00000000E+00  4.32507665E+00  2.49708410E+00  0.00000000E+00
  4.32507665E+00  2.49708410E+00  0.00000000E+00  4.32507665E+00  2.49708410E+00
  0.00000000E+00  0.00000000E+00  4.56735466E+00  0.00000000E+00  0.00000000E+00
  4.56735466E+00  0.00000000E+00  0.00000000E+00  4.56735466E+00  0.00000000E+00
  0.00000000E+00  4.56735466E+00  0.00000000E+00 -4.32507665E+00  2.49708410E+00
  0.00000000E+00 -4.32507665E+00  2.49708410E+00  0.00000000E+00 -4.32507665E+00
  2.49708410E+00  0.00000000E+00 -4.32507665E+00  2.49708410E+00  0.00000000E+00
 -3.95544433E+00 -2.28367733E+00  0.00000000E+00 -3.95544433E+00 -2.28367733E+00
  0.00000000E+00 -3.95544433E+00 -2.28367733E+00  0.00000000E+00 -3.95544433E+00
 -2.28367733E+00  0.00000000E+00 -2.37228848E+00  1.36964137E+00  0.00000000E+00
 -2.37228848E+00  1.36964137E+00  0.00000000E+00 -2.37228848E+00  1.36964137E+00
  0.00000000E+00 -2.37228848E+00  1.36964137E+00  0.00000000E+00 -2.37228848E+00
  1.36964137E+00  0.00000000E+00  2.37228848E+00  1.36964137E+00  0.00000000E+00
  2.37228848E+00  1.36964137E+00  0.00000000E+00  2.37228848E+00  1.36964137E+00
  0.00000000E+00  2.37228848E+00  1.36964137E+00  0.00000000E+00  2.37228848E+00
  1.36964137E+00  0.00000000E+00  0.00000000E+00 -2.73928463E+00  0.00000000E+00
  0.00000000E+00 -2.73928463E+00  0.00000000E+00  0.00000000E+00 -2.73928463E+00
  0.00000000E+00  0.00000000E+00 -2.73928463E+00  0.00000000E+00  0.00000000E+00
 -2.73928463E+00  0.00000000E+00  0.00000000E+00  2.66155263E+00  0.00000000E+00
  0.00000000E+00  2.66155263E+00  0.00000000E+00  0.00000000E+00  2.66155263E+00
  0.00000000E+00  0.00000000E+00  2.66155263E+00  0.00000000E+00  0.00000000E+00
  2.66155263E+00  0.00000000E+00  2.30497265E+00 -1.33077726E+00  0.00000000E+00
  2.30497265E+00 -1.33077726E+00  0.00000000E+00  2.30497265E+00 -1.33077726E+00
  0.00000000E+00  2.30497265E+00 -1.33077726E+00  0.00000000E+00  2.30497265E+00
 -1.33077726E+00  0.00000000E+00 -2.30497265E+00 -1.33077726E+00  0.00000000E+00
 -2.30497265E+00 -1.33077726E+00  0.00000000E+00 -2.30497265E+00 -1.33077726E+00
  0.00000000E+00 -2.30497265E+00 -1.33077726E+00  0.00000000E+00 -2.30497265E+00
 -1.33077726E+00  0.00000000E+00
Num ILSW                                   I              100
ILSW                                       I   N=         100
           0           0           0           0           2           0
           0           0           0           0         402          -1
           5           0           0           0           0           0
           0           0           0           0           0           0
           1           1           0           0           0           0
           0           0      100000           0          -1           0
           0           0           0           0           0           0
           0           0           0           1           0           0
           0 -2000000000           1           0           0           0
           0           0           4          52           0           0
           0           0           5           0           0           0
           0           0           0          12           0           1
           0           0           0           0           0           0
           0           0           0           0           0           0
           0           0           0           0           0           0
           0           0           0           0           0           0
           0           0           0           0
Num RLSW                                   I               52
RLSW                                       R   N=          52
  8.00000000E-01  7.20000000E-01  1.00000000E+00  8.10000000E-01  2.00000000E-01
  0.00000000E+00  0.00000000E+00  1.00000000E+00  0.00000000E+00  0.00000000E+00
  0.00000000E+00  0.00000000E+00  1.00000000E+00  0.00000000E+00  0.00000000E+00
  0.00000000E+00  0.00000000E+00  1.00000000E+00  0.00000000E+00  0.00000000E+00
  0.00000000E+00  0.00000000E+00  1.00000000E+00  0.00000000E+00  0.00000000E+00
  0.00000000E+00  0.00000000E+00  1.00000000E+00  0.00000000E+00  0.00000000E+00
  0.00000000E+00  0.00000000E+00  1.00000000E+00  0.00000000E+00  0.00000000E+00
  0.00000000E+00  0.00000000E+00  0.00000000E+00  1.00000000E+00  1.00000000E+00
  0.00000000E+00  1.00000000E+00  0.00000000E+00  0.00000000E+00  0.00000000E+00
  0.00000000E+00  0.00000000E+00  0.00000000E+00  0.00000000E+00  0.00000000E+00
  0.00000000E+00  0.00000000E+00
MxBond                                     I                3
NBond                                      I   N=          12
           1           1           1           1           1           1
           3           3           3           3           3           3
IBond                                      I   N=          36
           9           0           0          11           0           0
           8           0           0          10           0           0
           7           0           0          12           0           0
           5          10          12           3          10          11
           1          11          12           4           7           8
           2           8           9           6           7           9
RBond                                      R   N=          36
  1.00000000E+00  0.00000000E+00  0.00000000E+00  1.00000000E+00  0.00000000E+00
  0.00000000E+00  1.00000000E+00  0.00000000E+00  0.00000000E+00  1.00000000E+00
  0.00000000E+00  0.00000000E+00  1.00000000E+00  0.00000000E+00  0.00000000E+00
  1.00000000E+00  0.00000000E+00  0.00000000E+00  1.00000000E+00  1.00000000E+00
  1.00000000E+00  1.00000000E+00  1.00000000E+00  1.00000000E+00  1.00000000E+00
  1.00000000E+00  1.00000000E+00  1.00000000E+00  1.00000000E+00  1.00000000E+00
  1.00000000E+00  1.00000000E+00  1.00000000E+00  1.00000000E+00  1.00000000E+00
  1.00000000E+00
Virial Ratio                               R      2.004236583871853E+00
SCF Energy                                 R     -2.427444891772919E+02
Total Energy                               R     -2.427444891772919E+02
RMS Density                                R      3.604395780373610E-09
Job Status                                 I                1
Nuclear derivative order                   I                0
External E-field                           R   N=          35
  0.00000000E+00  0.00000000E+00  0.00000000E+00  0.00000000E+00  0.00000000E+00
  0.00000000E+00  0.00000000E+00  0.00000000E+00  0.00000000E+00  0.00000000E+00
  0.00000000E+00  0.00000000E+00  0.00000000E+00  0.00000000E+00  0.00000000E+00
  0.00000000E+00  0.00000000E+00  0.00000000E+00  0.00000000E+00  0.00000000E+00
  0.00000000E+00  0.00000000E+00  0.00000000E+00  0.00000000E+00  0.00000000E+00
  0.00000000E+00  0.00000000E+00  0.00000000E+00  0.00000000E+00  0.00000000E+00
  0.00000000E+00  0.00000000E+00  0.00000000E+00  0.00000000E+00  0.00000000E+00
IOpCl                                      I                0
IROHF                                      I                0
Alpha Orbital Energies                     R   N=         144
 -1.42951093E+01 -1.42951087E+01 -1.42950885E+01 -6.74244387E+00 -6.74242462E+00
 -6.74242444E+00 -8.96775245E-01 -8.42908749E-01 -8.42908302E-01 -5.60021890E-01
 -5.33165796E-01 -5.33165790E-01 -4.42857730E-01 -4.42838027E-01 -4.42837528E-01
 -3.93854368E-01 -3.71015711E-01 -3.28695730E-01 -3.28695721E-01 -2.85250378E-01
 -2.85249982E-01  1.16382207E-02  1.16386173E-02  4.63158770E-02  7.18281003E-02
  7.18282717E-02  1.00466910E-01  1.18662984E-01  1.25395037E-01  1.25395255E-01
  1.85936519E-01  1.88812608E-01  2.18569040E-01  2.18570855E-01  2.65218776E-01
  2.65219428E-01  2.96714100E-01  3.20209066E-01  3.20211432E-01  3.22380169E-01
  3.31103665E-01  3.31106003E-01  4.37611873E-01  4.37615222E-01  4.51029449E-01
  4.68353504E-01  4.68354865E-01  5.03582870E-01  5.53717631E-01  5.53718221E-01
  6.11994333E-01  6.24199327E-01  6.24204969E-01  6.76916134E-01  6.76916276E-01
  6.81887961E-01  7.02921280E-01  7.55067379E-01  7.76814967E-01  8.13200094E-01
  8.19941160E-01  8.37444926E-01  8.37444986E-01  8.95884208E-01  8.95884942E-01
  9.66681349E-01  9.66684444E-01  9.84420129E-01  1.03215257E+00  1.03215281E+00
  1.05064281E+00  1.16078225E+00  1.16078229E+00  1.23209931E+00  1.23210015E+00
  1.27094439E+00  1.30765816E+00  1.30765821E+00  1.39174950E+00  1.44899185E+00
  1.49149905E+00  1.49150344E+00  1.49387010E+00  1.49387078E+00  1.66412685E+00
  1.71656472E+00  1.71656501E+00  1.75635712E+00  1.80236939E+00  1.80236982E+00
  1.82084331E+00  1.82084406E+00  1.91369896E+00  1.91910465E+00  1.91910482E+00
  1.95243364E+00  1.96724586E+00  2.01201678E+00  2.01201710E+00  2.12824792E+00
  2.12824908E+00  2.14048475E+00  2.30094403E+00  2.30094435E+00  2.42001571E+00
  2.42001684E+00  2.42119070E+00  2.42936165E+00  2.42936184E+00  2.51533636E+00
  2.52092825E+00  2.53007356E+00  2.53007370E+00  2.58011888E+00  2.64800991E+00
  2.64801007E+00  2.67164632E+00  2.67164680E+00  2.74396066E+00  2.74950937E+00
  2.83570361E+00  2.83570545E+00  2.84734406E+00  2.89242008E+00  2.96229088E+00
  2.96229127E+00  3.21428841E+00  3.21428919E+00  3.46037286E+00  3.75052100E+00
  3.75052129E+00  3.80087531E+00  4.47220094E+00  4.47220188E+00  4.62387506E+00
  4.63658778E+00  4.83008202E+00  4.83008249E+00  1.46990430E+01  1.46990434E+01
  1.47918637E+01  3.54852908E+01  3.55971759E+01  3.55971765E+01
Alpha MO coefficients                      R   N=       20736
 -1.43368680E-12 -1.04693484E-11  2.57878775E-11 -3.72746329E-04 -5.28039260E-12
  1.24719341E-16 -6.84145238E-06 -2.08048104E-03  1.12640859E-04  1.22078072E-03
 -6.83436227E-04  3.26015355E-17 -8.08034431E-05 -5.90120578E-04  1.51521904E-03
  1.64998145E-04  3.10466371E-04  2.61388301E-16  3.21490783E-14  3.34210865E-11
 -1.59135143E-12  3.70340060E-05 -2.23977886E-11 -2.34274156E-16  8.08034443E-05
  5.90120586E-04 -1.51521906E-03  1.64998153E-04 -3.10466366E-04  1.21380074E-17
  6.84145210E-06  2.08048100E-03 -1.12640856E-04  1.22078070E-03  6.83436214E-04
  2.54986339E-16  2.22040495E-05 -7.14563572E-05  1.37783506E-05  3.28963745E-04
  5.55790147E-16 -1.24222890E-04  3.23571504E-05 -1.34881031E-03 -7.62239077E-16
 -1.20864037E-03 -1.95946147E-03  1.56176822E-03  1.08075506E-16 -3.77319562E-05
 -1.84494160E-16  2.14072416E-16 -1.09524266E-03  7.26996163E-05 -2.22040491E-05
  7.14563561E-05  1.37783599E-05 -3.28963756E-04  3.24300125E-16  1.24222889E-04
  3.23571128E-05  1.34881036E-03 -2.91447635E-16  1.20864036E-03 -1.95946142E-03
 -1.56176822E-03 -9.65431953E-17  3.77319557E-05 -5.91687815E-17  1.48023464E-16
  1.09524269E-03  7.26995863E-05 -3.83807175E-13  1.22015276E-12  5.83560583E-04
  2.62677796E-12 -2.11523471E-16  2.65170826E-12 -2.30385269E-03 -1.22082447E-11
  1.44675938E-16  2.02450213E-11  7.45599291E-04  4.19699890E-11  1.81755313E-16
  7.19046251E-13  2.18944912E-16  1.49923323E-16 -1.08946010E-11 -1.82431846E-03
 -6.31514305E-09 -5.27684469E-09  1.07646966E-04 -5.51874794E-12  2.50330000E-16
 -1.80928313E-10 -5.82784196E-04  3.43230911E-12 -4.18673193E-16  4.59179936E-11
 -5.04041556E-05 -2.40318890E-11  3.42441925E-16  9.14604198E-12 -4.19340945E-16
  7.86396135E-17  4.43472523E-12  2.73084020E-04  3.94089783E-01  3.29298938E-01
  3.19105335E-04 -1.22084745E-04 -1.92213650E-16  1.12740580E-02 -3.04420903E-04
 -1.60714372E-04  4.42764512E-17 -2.91088417E-03  1.29533707E-03 -7.76965197E-04
  1.13947692E-17 -5.70384369E-04  1.28811659E-16  2.59882998E-16  2.54939779E-04
 -1.68483926E-04 -3.94089776E-01 -3.29298932E-01  3.19105331E-04  1.22084740E-04
 -1.96193070E-16 -1.12740578E-02 -3.04420908E-04  1.60714386E-04  7.59044269E-17
  2.91088412E-03  1.29533705E-03  7.76965184E-04 -1.44389393E-16  5.70384358E-04
  2.56101729E-16  2.19151343E-16 -2.54939783E-04 -1.68483919E-04  9.65555194E-05
  7.05088021E-04 -1.77324303E-03 -5.34391981E-12  3.55900646E-04 -6.02354458E-17
  6.64444722E-06  1.23510285E-03 -7.42415257E-05 -7.05213253E-04  4.44180440E-04
  4.63088843E-16 -4.33682479E-05 -3.16800626E-04  8.50590009E-04  3.00234062E-04
 -1.99319644E-04 -2.27149616E-16 -5.20087900E-06 -2.36754276E-03  1.20809601E-04
  5.29164771E-13  1.58965346E-03 -3.61613486E-16 -4.33682456E-05 -3.16800609E-04
  8.50589966E-04 -3.00234057E-04 -1.99319653E-04  5.79219749E-16  6.64444742E-06
  1.23510291E-03 -7.42415290E-05  7.05213288E-04  4.44180460E-04  1.03397235E-16
 -1.22681004E-05  3.99626403E-05  3.25866317E-04  3.95286852E-04 -1.71164730E-17
  5.17780179E-05 -1.33124138E-03 -1.53473192E-03 -3.04140415E-16  6.89636965E-04
  1.53337853E-03 -1.39864886E-04 -4.03867588E-16  1.85794928E-05 -1.03785856E-16
 -1.89287640E-17 -1.20504453E-03 -1.07188682E-03 -1.22681011E-05  3.99626424E-05
 -3.25866317E-04  3.95286843E-04 -1.48069793E-16  5.17780215E-05  1.33124138E-03
 -1.53473188E-03  2.29826285E-16  6.89637000E-04 -1.53337859E-03 -1.39864930E-04
 -1.31630964E-16  1.85794939E-05  1.46455946E-16 -2.23969748E-16 -1.20504450E-03
  1.07188682E-03  2.61818114E-05 -8.37757113E-05  8.36905586E-12 -1.79597576E-04
  8.88063833E-18 -1.63328664E-04 -3.30443546E-11  8.30845260E-04 -2.73266621E-17
 -1.40329532E-03  1.06846736E-11 -2.89284988E-03 -7.94599377E-17 -4.67593886E-05
  4.74207916E-16  2.30066665E-17  7.31555274E-04 -2.61619409E-11  4.48030887E-01
  3.74370139E-01  1.54241325E-12  3.87365409E-04  2.59513250E-16  1.28261396E-02
 -8.35189673E-12 -2.25151754E-04 -1.58247747E-16 -3.28488201E-03 -7.04291918E-13
  1.71084450E-03  6.18387032E-16 -6.48663497E-04 -1.56832428E-16  2.32455948E-17
 -3.12552313E-04  3.91398777E-12 -2.34394785E-01 -1.95860443E-01 -1.23904769E-04
  1.79158348E-04 -7.85197495E-18 -6.69658521E-03 -1.72420210E-04 -4.83102966E-04
 -3.99838238E-16  1.75575406E-03 -8.05062445E-04  4.14411053E-04 -2.20078591E-16
  3.39041333E-04 -1.22008678E-17  1.53893782E-16  1.24343437E-04  2.57516991E-04
 -2.34394796E-01 -1.95860453E-01  1.23904778E-04  1.79158352E-04  4.32672765E-18
 -6.69658554E-03  1.72420201E-04 -4.83102962E-04 -3.03147628E-16  1.75575415E-03
  8.05062482E-04  4.14411075E-04  7.09627969E-16  3.39041349E-04  1.54908407E-16
 -4.41484602E-17  1.24343430E-04 -2.57516996E-04 -1.50152256E-04 -1.09318377E-03
  1.07903724E-03  1.23190807E-13 -5.38090905E-04  2.85973163E-16 -1.25217873E-04
 -1.56497186E-03  4.27441246E-04  1.00509817E-03 -5.79497346E-04  2.63283077E-16
 -1.53160811E-04 -1.11516377E-03  1.13545762E-03  4.79088036E-04  2.68585486E-04
 -3.25870315E-16 -1.25470406E-04 -1.64245759E-03  4.31635083E-04 -1.22762183E-14
  1.21229195E-03  4.38896662E-17 -1.53160812E-04 -1.11516377E-03  1.13545762E-03
 -4.79088036E-04  2.68585487E-04 -3.88877279E-16 -1.25217873E-04 -1.56497186E-03
  4.27441246E-04 -1.00509817E-03 -5.79497346E-04  1.11295245E-16 -2.57845864E-05
  6.05807112E-05  1.47558107E-04 -7.26429972E-05 -3.87850985E-16  9.27754033E-04
 -8.31610729E-04  4.30581713E-04  4.45594867E-16  3.87320153E-04  1.33657802E-03
 -7.55637137E-04 -4.34283175E-17  1.49290708E-04 -2.98136669E-16  1.53511253E-16
  5.94546650E-04 -1.09774036E-03 -2.57845864E-05  6.05807111E-05 -1.47558107E-04
 -7.26429969E-05 -1.56108933E-16  9.27754033E-04  8.31610729E-04  4.30581712E-04
 -1.13595116E-16  3.87320152E-04 -1.33657802E-03 -7.55637136E-04  5.13208972E-16
  1.49290708E-04  2.61546916E-16  1.39298224E-16  5.94546649E-04  1.09774036E-03
 -2.49573952E-05  5.79186864E-05 -1.92026731E-13  1.58428174E-04 -2.46204395E-16
  9.23127764E-04  7.59013603E-13 -9.09323611E-04  3.10447605E-16  3.42319842E-04
 -2.40481694E-13  1.44306836E-03 -3.82358676E-17  1.47882234E-04 -3.03702529E-16
  1.04197611E-16 -1.22520089E-03  6.03132214E-13  3.31483027E-01  2.77061341E-01
 -3.57085159E-14  1.07557253E-04 -1.12529299E-15  9.06721985E-03  1.92317633E-13
  6.25903497E-04  1.11684370E-15 -3.58426669E-03  2.23552957E-14  1.55573786E-03
 -5.24763953E-16 -4.70049605E-04  1.02747762E-16 -3.12498279E-16 -1.48319880E-04
 -9.07144106E-14  3.16804350E-01  2.64795935E-01  8.32678323E-05 -4.57593513E-05