Title Card Required                                                     
SP        UB3LYP                                                      6-311G(d,p)         
Number of atoms                            I               16
Info1-9                                    I   N=           9
          25          23           0           0           0         110
           1          18        -502
Full Title                                 C   N=           2
Title Card Required     
Route                                      C   N=           4
#p ub3lyp/6-311g(d,p) nosymm density=current    
Charge                                     I                0
Multiplicity                               I                3
Number of electrons                        I               56
Number of alpha electrons                  I               29
Number of beta electrons                   I               27
Number of basis functions                  I              192
Number of independent functions            I              192
Number of point charges in /Mol/           I                0
Number of translation vectors              I                0
Atomic numbers                             I   N=          16
           6           6           1           1           1           1
           1           1           1           1           6           6
           5           5           7           7
Nuclear charges                            R   N=          16
  6.00000000E+00  6.00000000E+00  1.00000000E+00  1.00000000E+00  1.00000000E+00
  1.00000000E+00  1.00000000E+00  1.00000000E+00  1.00000000E+00  1.00000000E+00
  6.00000000E+00  6.00000000E+00  5.00000000E+00  5.00000000E+00  7.00000000E+00
  7.00000000E+00
Current cartesian coordinates              R   N=          48
  3.14174716E+00  1.47400905E+00  0.00000000E+00  1.29919805E+00  3.45849738E+00
  0.00000000E+00  5.04976205E+00  2.24906511E+00  0.00000000E+00  5.24416196E+00
 -2.36663631E+00  0.00000000E+00  1.95198126E+00 -5.06334352E+00  0.00000000E+00
 -1.95198126E+00 -5.06334352E+00  0.00000000E+00 -5.24416196E+00 -2.36663631E+00
  0.00000000E+00 -5.04976205E+00  2.24906511E+00  0.00000000E+00 -2.11462810E+00
  5.34612780E+00  0.00000000E+00  2.11462810E+00  5.34612780E+00  0.00000000E+00
 -1.29919805E+00  3.45849738E+00  0.00000000E+00 -3.14174716E+00  1.47400905E+00
  0.00000000E+00  3.21298606E+00 -1.36981145E+00  0.00000000E+00 -3.21298606E+00
 -1.36981145E+00  0.00000000E+00  1.29189993E+00 -3.27302643E+00  0.00000000E+00
 -1.29189993E+00 -3.27302643E+00  0.00000000E+00
Number of symbols in /Mol/                 I                0
Force Field                                I                0
Atom Types                                 C   N=          16
                                                            
                                                            
                                                            
            
Int Atom Types                             I   N=          16
           0           0           0           0           0           0
           0           0           0           0           0           0
           0           0           0           0
MM charges                                 R   N=          16
  0.00000000E+00  0.00000000E+00  0.00000000E+00  0.00000000E+00  0.00000000E+00
  0.00000000E+00  0.00000000E+00  0.00000000E+00  0.00000000E+00  0.00000000E+00
  0.00000000E+00  0.00000000E+00  0.00000000E+00  0.00000000E+00  0.00000000E+00
  0.00000000E+00
Integer atomic weights                     I   N=          16
          12          12           1           1           1           1
           1           1           1           1          12          12
          11          11          14          14
Real atomic weights                        R   N=          16
  1.20000000E+01  1.20000000E+01  1.00782504E+00  1.00782504E+00  1.00782504E+00
  1.00782504E+00  1.00782504E+00  1.00782504E+00  1.00782504E+00  1.00782504E+00
  1.20000000E+01  1.20000000E+01  1.10093053E+01  1.10093053E+01  1.40030740E+01
  1.40030740E+01
Atom fragment info                         I   N=          16
           0           0           0           0           0           0
           0           0           0           0           0           0
           0           0           0           0
Atom residue num                           I   N=          16
           0           0           0           0           0           0
           0           0           0           0           0           0
           0           0           0           0
Nuclear spins                              I   N=          16
           0           0           1           1           1           1
           1           1           1           1           0           0
           3           3           2           2
Nuclear ZEff                               R   N=          16
 -3.60000000E+00 -3.60000000E+00 -1.00000000E+00 -1.00000000E+00 -1.00000000E+00
 -1.00000000E+00 -1.00000000E+00 -1.00000000E+00 -1.00000000E+00 -1.00000000E+00
 -3.60000000E+00 -3.60000000E+00 -2.75000000E+00 -2.75000000E+00 -4.55000000E+00
 -4.55000000E+00
Nuclear ZNuc                               R   N=          16
  6.00000000E+00  6.00000000E+00  1.00000000E+00  1.00000000E+00  1.00000000E+00
  1.00000000E+00  1.00000000E+00  1.00000000E+00  1.00000000E+00  1.00000000E+00
  6.00000000E+00  6.00000000E+00  5.00000000E+00  5.00000000E+00  7.00000000E+00
  7.00000000E+00
Nuclear QMom                               R   N=          16
  0.00000000E+00  0.00000000E+00  0.00000000E+00  0.00000000E+00  0.00000000E+00
  0.00000000E+00  0.00000000E+00  0.00000000E+00  0.00000000E+00  0.00000000E+00
  0.00000000E+00  0.00000000E+00  4.05900000E+00  4.05900000E+00  2.04400000E+00
  2.04400000E+00
Nuclear GFac                               R   N=          16
  0.00000000E+00  0.00000000E+00  2.79284600E+00  2.79284600E+00  2.79284600E+00
  2.79284600E+00  2.79284600E+00  2.79284600E+00  2.79284600E+00  2.79284600E+00
  0.00000000E+00  0.00000000E+00  2.68863700E+00  2.68863700E+00  4.03761000E-01
  4.03761000E-01
MicOpt                                     I   N=          16
          -1          -1          -1          -1          -1          -1
          -1          -1          -1          -1          -1          -1
          -1          -1          -1          -1
Number of residues                         I                0
Number of secondary structures             I                0
Number of contracted shells                I               72
Number of primitive shells                 I              144
Pure/Cartesian d shells                    I                0
Pure/Cartesian f shells                    I                0
Highest angular momentum                   I                2
Largest degree of contraction              I                6
Shell types                                I   N=          72
           0          -1          -1          -1          -2           0
          -1          -1          -1          -2           0           0
           0           1           0           0           0           1
           0           0           0           1           0           0
           0           1           0           0           0           1
           0           0           0           1           0           0
           0           1           0           0           0           1
           0          -1          -1          -1          -2           0
          -1          -1          -1          -2           0          -1
          -1          -1          -2           0          -1          -1
          -1          -2           0          -1          -1          -1
          -2           0          -1          -1          -1          -2
Number of primitives per shell             I   N=          72
           6           3           1           1           1           6
           3           1           1           1           3           1
           1           1           3           1           1           1
           3           1           1           1           3           1
           1           1           3           1           1           1
           3           1           1           1           3           1
           1           1           3           1           1           1
           6           3           1           1           1           6
           3           1           1           1           6           3
           1           1           1           6           3           1
           1           1           6           3           1           1
           1           6           3           1           1           1
Shell to atom map                          I   N=          72
           1           1           1           1           1           2
           2           2           2           2           3           3
           3           3           4           4           4           4
           5           5           5           5           6           6
           6           6           7           7           7           7
           8           8           8           8           9           9
           9           9          10          10          10          10
          11          11          11          11          11          12
          12          12          12          12          13          13
          13          13          13          14          14          14
          14          14          15          15          15          15
          15          16          16          16          16          16
Primitive exponents                        R   N=         144
  4.56324000E+03  6.82024000E+02  1.54973000E+02  4.44553000E+01  1.30290000E+01
  1.82773000E+00  2.09642000E+01  4.80331000E+00  1.45933000E+00  4.83456000E-01
  1.45585000E-01  6.26000000E-01  4.56324000E+03  6.82024000E+02  1.54973000E+02
  4.44553000E+01  1.30290000E+01  1.82773000E+00  2.09642000E+01  4.80331000E+00
  1.45933000E+00  4.83456000E-01  1.45585000E-01  6.26000000E-01  3.38650000E+01
  5.09479000E+00  1.15879000E+00  3.25840000E-01  1.02741000E-01  7.50000000E-01
  3.38650000E+01  5.09479000E+00  1.15879000E+00  3.25840000E-01  1.02741000E-01
  7.50000000E-01  3.38650000E+01  5.09479000E+00  1.15879000E+00  3.25840000E-01
  1.02741000E-01  7.50000000E-01  3.38650000E+01  5.09479000E+00  1.15879000E+00
  3.25840000E-01  1.02741000E-01  7.50000000E-01  3.38650000E+01  5.09479000E+00
  1.15879000E+00  3.25840000E-01  1.02741000E-01  7.50000000E-01  3.38650000E+01
  5.09479000E+00  1.15879000E+00  3.25840000E-01  1.02741000E-01  7.50000000E-01
  3.38650000E+01  5.09479000E+00  1.15879000E+00  3.25840000E-01  1.02741000E-01
  7.50000000E-01  3.38650000E+01  5.09479000E+00  1.15879000E+00  3.25840000E-01
  1.02741000E-01  7.50000000E-01  4.56324000E+03  6.82024000E+02  1.54973000E+02
  4.44553000E+01  1.30290000E+01  1.82773000E+00  2.09642000E+01  4.80331000E+00
  1.45933000E+00  4.83456000E-01  1.45585000E-01  6.26000000E-01  4.56324000E+03
  6.82024000E+02  1.54973000E+02  4.44553000E+01  1.30290000E+01  1.82773000E+00
  2.09642000E+01  4.80331000E+00  1.45933000E+00  4.83456000E-01  1.45585000E-01
  6.26000000E-01  2.85889000E+03  4.28140000E+02  9.75282000E+01  2.79693000E+01
  8.21577000E+00  1.11278000E+00  1.32415000E+01  3.00166000E+00  9.12856000E-01
  3.15454000E-01  9.88563000E-02  4.01000000E-01  2.85889000E+03  4.28140000E+02
  9.75282000E+01  2.79693000E+01  8.21577000E+00  1.11278000E+00  1.32415000E+01
  3.00166000E+00  9.12856000E-01  3.15454000E-01  9.88563000E-02  4.01000000E-01
  6.29348000E+03  9.49044000E+02  2.18776000E+02  6.36916000E+01  1.88282000E+01
  2.72023000E+00  3.06331000E+01  7.02614000E+00  2.11205000E+00  6.84009000E-01
  2.00878000E-01  9.13000000E-01  6.29348000E+03  9.49044000E+02  2.18776000E+02
  6.36916000E+01  1.88282000E+01  2.72023000E+00  3.06331000E+01  7.02614000E+00
  2.11205000E+00  6.84009000E-01  2.00878000E-01  9.13000000E-01
Contraction coefficients                   R   N=         144
  1.96665025E-03  1.52306019E-02  7.61269097E-02  2.60801033E-01  6.16462078E-01
  2.21006028E-01  1.14660081E-01  9.19999648E-01 -3.03068213E-03  1.00000000E+00
  1.00000000E+00  1.00000000E+00  1.96665025E-03  1.52306019E-02  7.61269097E-02
  2.60801033E-01  6.16462078E-01  2.21006028E-01  1.14660081E-01  9.19999648E-01
 -3.03068213E-03  1.00000000E+00  1.00000000E+00  1.00000000E+00  2.54938145E-02
  1.90373109E-01  8.52161486E-01  1.00000000E+00  1.00000000E+00  1.00000000E+00
  2.54938145E-02  1.90373109E-01  8.52161486E-01  1.00000000E+00  1.00000000E+00
  1.00000000E+00  2.54938145E-02  1.90373109E-01  8.52161486E-01  1.00000000E+00
  1.00000000E+00  1.00000000E+00  2.54938145E-02  1.90373109E-01  8.52161486E-01
  1.00000000E+00  1.00000000E+00  1.00000000E+00  2.54938145E-02  1.90373109E-01
  8.52161486E-01  1.00000000E+00  1.00000000E+00  1.00000000E+00  2.54938145E-02
  1.90373109E-01  8.52161486E-01  1.00000000E+00  1.00000000E+00  1.00000000E+00
  2.54938145E-02  1.90373109E-01  8.52161486E-01  1.00000000E+00  1.00000000E+00
  1.00000000E+00  2.54938145E-02  1.90373109E-01  8.52161486E-01  1.00000000E+00
  1.00000000E+00  1.00000000E+00  1.96665025E-03  1.52306019E-02  7.61269097E-02
  2.60801033E-01  6.16462078E-01  2.21006028E-01  1.14660081E-01  9.19999648E-01
 -3.03068213E-03  1.00000000E+00  1.00000000E+00  1.00000000E+00  1.96665025E-03
  1.52306019E-02  7.61269097E-02  2.60801033E-01  6.16462078E-01  2.21006028E-01
  1.14660081E-01  9.19999648E-01 -3.03068213E-03  1.00000000E+00  1.00000000E+00
  1.00000000E+00  2.15374907E-03  1.65822928E-02  8.21869644E-02  2.76617880E-01
  6.29315727E-01  1.73769925E-01  1.17442942E-01  9.18001549E-01 -2.65104870E-03
  1.00000000E+00  1.00000000E+00  1.00000000E+00  2.15374907E-03  1.65822928E-02
  8.21869644E-02  2.76617880E-01  6.29315727E-01  1.73769925E-01  1.17442942E-01
  9.18001549E-01 -2.65104870E-03  1.00000000E+00  1.00000000E+00  1.00000000E+00
  1.96978815E-03  1.49612859E-02  7.35005308E-02  2.48936766E-01  6.02459433E-01
  2.56201759E-01  1.11906080E-01  9.21666655E-01 -2.56919183E-03  1.00000000E+00
  1.00000000E+00  1.00000000E+00  1.96978815E-03  1.49612859E-02  7.35005308E-02
  2.48936766E-01  6.02459433E-01  2.56201759E-01  1.11906080E-01  9.21666655E-01
 -2.56919183E-03  1.00000000E+00  1.00000000E+00  1.00000000E+00
P(S=P) Contraction coefficients            R   N=         144
  0.00000000E+00  0.00000000E+00  0.00000000E+00  0.00000000E+00  0.00000000E+00
  0.00000000E+00  4.02486927E-02  2.37593957E-01  8.15853851E-01  1.00000000E+00
  1.00000000E+00  0.00000000E+00  0.00000000E+00  0.00000000E+00  0.00000000E+00
  0.00000000E+00  0.00000000E+00  0.00000000E+00  4.02486927E-02  2.37593957E-01
  8.15853851E-01  1.00000000E+00  1.00000000E+00  0.00000000E+00  0.00000000E+00
  0.00000000E+00  0.00000000E+00  0.00000000E+00  0.00000000E+00  0.00000000E+00
  0.00000000E+00  0.00000000E+00  0.00000000E+00  0.00000000E+00  0.00000000E+00
  0.00000000E+00  0.00000000E+00  0.00000000E+00  0.00000000E+00  0.00000000E+00
  0.00000000E+00  0.00000000E+00  0.00000000E+00  0.00000000E+00  0.00000000E+00
  0.00000000E+00  0.00000000E+00  0.00000000E+00  0.00000000E+00  0.00000000E+00
  0.00000000E+00  0.00000000E+00  0.00000000E+00  0.00000000E+00  0.00000000E+00
  0.00000000E+00  0.00000000E+00  0.00000000E+00  0.00000000E+00  0.00000000E+00
  0.00000000E+00  0.00000000E+00  0.00000000E+00  0.00000000E+00  0.00000000E+00
  0.00000000E+00  0.00000000E+00  0.00000000E+00  0.00000000E+00  0.00000000E+00
  0.00000000E+00  0.00000000E+00  0.00000000E+00  0.00000000E+00  0.00000000E+00
  0.00000000E+00  0.00000000E+00  0.00000000E+00  4.02486927E-02  2.37593957E-01
  8.15853851E-01  1.00000000E+00  1.00000000E+00  0.00000000E+00  0.00000000E+00
  0.00000000E+00  0.00000000E+00  0.00000000E+00  0.00000000E+00  0.00000000E+00
  4.02486927E-02  2.37593957E-01  8.15853851E-01  1.00000000E+00  1.00000000E+00
  0.00000000E+00  0.00000000E+00  0.00000000E+00  0.00000000E+00  0.00000000E+00
  0.00000000E+00  0.00000000E+00  4.18099989E-02  2.36574994E-01  8.16213978E-01
  1.00000000E+00  1.00000000E+00  0.00000000E+00  0.00000000E+00  0.00000000E+00
  0.00000000E+00  0.00000000E+00  0.00000000E+00  0.00000000E+00  4.18099989E-02
  2.36574994E-01  8.16213978E-01  1.00000000E+00  1.00000000E+00  0.00000000E+00
  0.00000000E+00  0.00000000E+00  0.00000000E+00  0.00000000E+00  0.00000000E+00
  0.00000000E+00  3.83119186E-02  2.37403116E-01  8.17592398E-01  1.00000000E+00
  1.00000000E+00  0.00000000E+00  0.00000000E+00  0.00000000E+00  0.00000000E+00
  0.00000000E+00  0.00000000E+00  0.00000000E+00  3.83119186E-02  2.37403116E-01
  8.17592398E-01  1.00000000E+00  1.00000000E+00  0.00000000E+00
Coordinates of each shell                  R   N=         216
  3.14174716E+00  1.47400905E+00  0.00000000E+00  3.14174716E+00  1.47400905E+00
  0.00000000E+00  3.14174716E+00  1.47400905E+00  0.00000000E+00  3.14174716E+00
  1.47400905E+00  0.00000000E+00  3.14174716E+00  1.47400905E+00  0.00000000E+00
  1.29919805E+00  3.45849738E+00  0.00000000E+00  1.29919805E+00  3.45849738E+00
  0.00000000E+00  1.29919805E+00  3.45849738E+00  0.00000000E+00  1.29919805E+00
  3.45849738E+00  0.00000000E+00  1.29919805E+00  3.45849738E+00  0.00000000E+00
  5.04976205E+00  2.24906511E+00  0.00000000E+00  5.04976205E+00  2.24906511E+00
  0.00000000E+00  5.04976205E+00  2.24906511E+00  0.00000000E+00  5.04976205E+00
  2.24906511E+00  0.00000000E+00  5.24416196E+00 -2.36663631E+00  0.00000000E+00
  5.24416196E+00 -2.36663631E+00  0.00000000E+00  5.24416196E+00 -2.36663631E+00
  0.00000000E+00  5.24416196E+00 -2.36663631E+00  0.00000000E+00  1.95198126E+00
 -5.06334352E+00  0.00000000E+00  1.95198126E+00 -5.06334352E+00  0.00000000E+00
  1.95198126E+00 -5.06334352E+00  0.00000000E+00  1.95198126E+00 -5.06334352E+00
  0.00000000E+00 -1.95198126E+00 -5.06334352E+00  0.00000000E+00 -1.95198126E+00
 -5.06334352E+00  0.00000000E+00 -1.95198126E+00 -5.06334352E+00  0.00000000E+00
 -1.95198126E+00 -5.06334352E+00  0.00000000E+00 -5.24416196E+00 -2.36663631E+00
  0.00000000E+00 -5.24416196E+00 -2.36663631E+00  0.00000000E+00 -5.24416196E+00
 -2.36663631E+00  0.00000000E+00 -5.24416196E+00 -2.36663631E+00  0.00000000E+00
 -5.04976205E+00  2.24906511E+00  0.00000000E+00 -5.04976205E+00  2.24906511E+00
  0.00000000E+00 -5.04976205E+00  2.24906511E+00  0.00000000E+00 -5.04976205E+00
  2.24906511E+00  0.00000000E+00 -2.11462810E+00  5.34612780E+00  0.00000000E+00
 -2.11462810E+00  5.34612780E+00  0.00000000E+00 -2.11462810E+00  5.34612780E+00
  0.00000000E+00 -2.11462810E+00  5.34612780E+00  0.00000000E+00  2.11462810E+00
  5.34612780E+00  0.00000000E+00  2.11462810E+00  5.34612780E+00  0.00000000E+00
  2.11462810E+00  5.34612780E+00  0.00000000E+00  2.11462810E+00  5.34612780E+00
  0.00000000E+00 -1.29919805E+00  3.45849738E+00  0.00000000E+00 -1.29919805E+00
  3.45849738E+00  0.00000000E+00 -1.29919805E+00  3.45849738E+00  0.00000000E+00
 -1.29919805E+00  3.45849738E+00  0.00000000E+00 -1.29919805E+00  3.45849738E+00
  0.00000000E+00 -3.14174716E+00  1.47400905E+00  0.00000000E+00 -3.14174716E+00
  1.47400905E+00  0.00000000E+00 -3.14174716E+00  1.47400905E+00  0.00000000E+00
 -3.14174716E+00  1.47400905E+00  0.00000000E+00 -3.14174716E+00  1.47400905E+00
  0.00000000E+00  3.21298606E+00 -1.36981145E+00  0.00000000E+00  3.21298606E+00
 -1.36981145E+00  0.00000000E+00  3.21298606E+00 -1.36981145E+00  0.00000000E+00
  3.21298606E+00 -1.36981145E+00  0.00000000E+00  3.21298606E+00 -1.36981145E+00
  0.00000000E+00 -3.21298606E+00 -1.36981145E+00  0.00000000E+00 -3.21298606E+00
 -1.36981145E+00  0.00000000E+00 -3.21298606E+00 -1.36981145E+00  0.00000000E+00
 -3.21298606E+00 -1.36981145E+00  0.00000000E+00 -3.21298606E+00 -1.36981145E+00
  0.00000000E+00  1.29189993E+00 -3.27302643E+00  0.00000000E+00  1.29189993E+00
 -3.27302643E+00  0.00000000E+00  1.29189993E+00 -3.27302643E+00  0.00000000E+00
  1.29189993E+00 -3.27302643E+00  0.00000000E+00  1.29189993E+00 -3.27302643E+00
  0.00000000E+00 -1.29189993E+00 -3.27302643E+00  0.00000000E+00 -1.29189993E+00
 -3.27302643E+00  0.00000000E+00 -1.29189993E+00 -3.27302643E+00  0.00000000E+00
 -1.29189993E+00 -3.27302643E+00  0.00000000E+00 -1.29189993E+00 -3.27302643E+00
  0.00000000E+00
Num ILSW                                   I              100
ILSW                                       I   N=         100
           1           0           0           0           2           0
           0           0           0           0         402          -1
           5           0           0           0           0           0
           0           0           0           0           0           0
           1           1           0           0           0           0
           0           0      100000           0          -1           0
           0           0           0           0           0           0
           0           0           0           1           0           0
           0 -2000000000           1           0           0           0
           0           0           4          52           0           0
           0           0           5           0           0           0
           0           0           0          16           0           1
           0           0           0           0           0           0
           0           0           0           0           0           0
           0           0           0           0           0           0
           0           0           0           0           0           0
           0           0           0           0
Num RLSW                                   I               52
RLSW                                       R   N=          52
  8.00000000E-01  7.20000000E-01  1.00000000E+00  8.10000000E-01  2.00000000E-01
  0.00000000E+00  0.00000000E+00  1.00000000E+00  0.00000000E+00  0.00000000E+00
  0.00000000E+00  0.00000000E+00  1.00000000E+00  0.00000000E+00  0.00000000E+00
  0.00000000E+00  0.00000000E+00  1.00000000E+00  0.00000000E+00  0.00000000E+00
  0.00000000E+00  0.00000000E+00  1.00000000E+00  0.00000000E+00  0.00000000E+00
  0.00000000E+00  0.00000000E+00  1.00000000E+00  0.00000000E+00  0.00000000E+00
  0.00000000E+00  0.00000000E+00  1.00000000E+00  0.00000000E+00  0.00000000E+00
  0.00000000E+00  0.00000000E+00  0.00000000E+00  1.00000000E+00  1.00000000E+00
  0.00000000E+00  1.00000000E+00  0.00000000E+00  0.00000000E+00  0.00000000E+00
  0.00000000E+00  0.00000000E+00  0.00000000E+00  0.00000000E+00  0.00000000E+00
  0.00000000E+00  0.00000000E+00
MxBond                                     I                3
NBond                                      I   N=          16
           3           3           1           1           1           1
           1           1           1           1           3           3
           3           3           3           3
IBond                                      I   N=          48
           2           3          13           1          10          11
           1           0           0          13           0           0
          15           0           0          16           0           0
          14           0           0          12           0           0
          11           0           0           2           0           0
           2           9          12           8          11          14
           1           4          15           7          12          16
           5          13          16           6          14          15
RBond                                      R   N=          48
  1.00000000E+00  1.00000000E+00  1.00000000E+00  1.00000000E+00  1.00000000E+00
  1.50000000E+00  1.00000000E+00  0.00000000E+00  0.00000000E+00  1.00000000E+00
  0.00000000E+00  0.00000000E+00  1.00000000E+00  0.00000000E+00  0.00000000E+00
  1.00000000E+00  0.00000000E+00  0.00000000E+00  1.00000000E+00  0.00000000E+00
  0.00000000E+00  1.00000000E+00  0.00000000E+00  0.00000000E+00  1.00000000E+00
  0.00000000E+00  0.00000000E+00  1.00000000E+00  0.00000000E+00  0.00000000E+00
  1.50000000E+00  1.00000000E+00  1.00000000E+00  1.00000000E+00  1.00000000E+00
  1.00000000E+00  1.00000000E+00  1.00000000E+00  1.00000000E+00  1.00000000E+00
  1.00000000E+00  1.00000000E+00  1.00000000E+00  1.00000000E+00  1.50000000E+00
  1.00000000E+00  1.00000000E+00  1.50000000E+00
Virial Ratio                               R      2.004309027149602E+00
SCF Energy                                 R     -3.164767776422219E+02
Total Energy                               R     -3.164767776422219E+02
S**2                                       R      2.008977824199452E+00
S**2 after annihilation                    R      2.000041726845651E+00
RMS Density                                R      5.628084658011921E-09
Job Status                                 I                1
Nuclear derivative order                   I                0
External E-field                           R   N=          35
  0.00000000E+00  0.00000000E+00  0.00000000E+00  0.00000000E+00  0.00000000E+00
  0.00000000E+00  0.00000000E+00  0.00000000E+00  0.00000000E+00  0.00000000E+00
  0.00000000E+00  0.00000000E+00  0.00000000E+00  0.00000000E+00  0.00000000E+00
  0.00000000E+00  0.00000000E+00  0.00000000E+00  0.00000000E+00  0.00000000E+00
  0.00000000E+00  0.00000000E+00  0.00000000E+00  0.00000000E+00  0.00000000E+00
  0.00000000E+00  0.00000000E+00  0.00000000E+00  0.00000000E+00  0.00000000E+00
  0.00000000E+00  0.00000000E+00  0.00000000E+00  0.00000000E+00  0.00000000E+00
IOpCl                                      I                1
IROHF                                      I                0
Alpha Orbital Energies                     R   N=         192
 -1.43834581E+01 -1.43832838E+01 -1.01807212E+01 -1.01801077E+01 -1.01641914E+01
 -1.01641808E+01 -6.72498182E+00 -6.72496214E+00 -1.02448408E+00 -8.06034256E-01
 -8.04801800E-01 -7.24252956E-01 -6.50393526E-01 -5.89939721E-01 -5.79271296E-01
 -5.43133554E-01 -4.80534447E-01 -4.64205218E-01 -4.47748025E-01 -4.34588500E-01
 -4.01130064E-01 -3.65798332E-01 -3.43790506E-01 -3.40034349E-01 -3.29450367E-01
 -3.22418149E-01 -2.92516218E-01 -2.29266821E-01 -1.71160609E-01  1.77311896E-03
  4.51081445E-03  4.59707009E-02  4.74101624E-02  6.79167535E-02  8.60364681E-02
  1.10304712E-01  1.19591539E-01  1.25870398E-01  1.38302425E-01  1.60058135E-01
  1.68649166E-01  1.93510036E-01  2.24106163E-01  2.33116936E-01  2.65350738E-01
  2.69263587E-01  2.79871506E-01  2.80638925E-01  3.20907956E-01  3.21497812E-01
  3.38968019E-01  3.51935150E-01  3.59974386E-01  3.84109761E-01  3.96542289E-01
  4.14240825E-01  4.18763630E-01  4.24580073E-01  4.67119169E-01  4.87453843E-01
  4.96080780E-01  5.24444615E-01  5.34175609E-01  5.47943350E-01  5.77244977E-01
  5.82948873E-01  5.87862315E-01  6.05494031E-01  6.11703445E-01  6.19630367E-01
  6.30426713E-01  6.36181905E-01  6.83572025E-01  7.16638193E-01  7.34466063E-01
  7.35788857E-01  7.42434438E-01  7.64786065E-01  7.87664009E-01  7.89061515E-01
  7.97867704E-01  8.14071340E-01  8.54487584E-01  8.63999885E-01  8.81664309E-01
  9.16330003E-01  9.55996271E-01  9.73599987E-01  9.88405763E-01  9.99796615E-01
  1.00528515E+00  1.10538071E+00  1.11010091E+00  1.11124957E+00  1.11169466E+00
  1.13863171E+00  1.20810310E+00  1.21935529E+00  1.24066451E+00  1.35502620E+00
  1.38908537E+00  1.40096667E+00  1.41629220E+00  1.42984076E+00  1.46109980E+00
  1.49282639E+00  1.50454733E+00  1.54184583E+00  1.60948280E+00  1.62599859E+00
  1.65148549E+00  1.66654082E+00  1.67182496E+00  1.67514868E+00  1.71360503E+00
  1.73524416E+00  1.74592483E+00  1.75472271E+00  1.75809315E+00  1.79067511E+00
  1.81535432E+00  1.83874074E+00  1.85245178E+00  1.88325267E+00  1.88629142E+00
  1.90466340E+00  1.92385265E+00  1.95864969E+00  1.96011974E+00  1.97482196E+00
  1.99737316E+00  2.04359932E+00  2.06286472E+00  2.10580624E+00  2.16199994E+00
  2.17241240E+00  2.22323133E+00  2.23724868E+00  2.24215544E+00  2.24272153E+00
  2.27220592E+00  2.33380669E+00  2.40152512E+00  2.47056656E+00  2.47294283E+00
  2.49569216E+00  2.53140221E+00  2.54601342E+00  2.54865145E+00  2.60237706E+00
  2.62199276E+00  2.62295548E+00  2.63962727E+00  2.64979757E+00  2.66018079E+00
  2.68471337E+00  2.70842808E+00  2.71008623E+00  2.74097635E+00  2.77051313E+00
  2.77486864E+00  2.81749614E+00  2.82675729E+00  2.85711246E+00  2.90798469E+00
  2.94223736E+00  3.02151499E+00  3.07263141E+00  3.11962789E+00  3.14671664E+00
  3.33127104E+00  3.40678924E+00  3.43245914E+00  3.61191345E+00  3.69968506E+00
  3.72200193E+00  3.82274576E+00  3.95974585E+00  3.98224356E+00  4.02906098E+00
  4.42424421E+00  4.54201016E+00  4.77894221E+00  5.26189309E+00  1.47133843E+01
  1.48308606E+01  2.36467130E+01  2.39351514E+01  2.39616985E+01  2.41786243E+01
  3.54392461E+01  3.55158959E+01
Beta Orbital Energies                      R   N=         192
 -1.43783572E+01 -1.43781655E+01 -1.01779933E+01 -1.01773907E+01 -1.01568571E+01
 -1.01568478E+01 -6.72450857E+00 -6.72448734E+00 -1.01322636E+00 -7.94074811E-01
 -7.90117594E-01 -7.04362514E-01 -6.33883035E-01 -5.85510056E-01 -5.73201032E-01
 -5.32925630E-01 -4.76855745E-01 -4.59201996E-01 -4.39986006E-01 -4.03561266E-01
 -3.96184632E-01 -3.60882718E-01 -3.34411813E-01 -3.26928881E-01 -3.18021092E-01
 -3.00177716E-01 -2.45169562E-01 -1.40950273E-01 -8.94848547E-02  3.32549711E-03
  3.58283815E-02  4.74640196E-02  6.94914857E-02  8.03172528E-02  8.86795172E-02
  1.11844631E-01  1.22646812E-01  1.41993919E-01  1.61002062E-01  1.63837966E-01
  1.70918907E-01  1.98821177E-01  2.26820090E-01  2.38132342E-01  2.69297255E-01
  2.73180952E-01  2.87359128E-01  2.87995202E-01  3.26103884E-01  3.28775836E-01