Title Card Required                                                     
SP        RB3LYP                                                      6-311G(d,p)         
Number of atoms                            I               16
Info1-9                                    I   N=           9
          36          23           0           0           0         110
           1          18        -502
Full Title                                 C   N=           2
Title Card Required     
Route                                      C   N=           5
#p b3lyp/6-311g(d,p) nosymm pop=nbo density=current         
Charge                                     I                0
Multiplicity                               I                1
Number of electrons                        I               56
Number of alpha electrons                  I               28
Number of beta electrons                   I               28
Number of basis functions                  I              192
Number of independent functions            I              192
Number of point charges in /Mol/           I                0
Number of translation vectors              I                0
Atomic numbers                             I   N=          16
           7           5           7           6           1           1
           5           1           6           1           6           1
           6           1           1           1
Nuclear charges                            R   N=          16
  7.00000000E+00  5.00000000E+00  7.00000000E+00  6.00000000E+00  1.00000000E+00
  1.00000000E+00  5.00000000E+00  1.00000000E+00  6.00000000E+00  1.00000000E+00
  6.00000000E+00  1.00000000E+00  6.00000000E+00  1.00000000E+00  1.00000000E+00
  1.00000000E+00
Current cartesian coordinates              R   N=          48
  3.02913300E+00  1.10287684E+00 -7.44927544E-01  1.17623561E+00  2.97335610E+00
 -8.05280880E-01  3.02913300E+00 -1.10287684E+00  7.44927544E-01 -1.29845541E+00
  2.94693478E+00  7.83407565E-01  1.62914631E+00  4.69462554E+00 -2.20209063E+00
  4.52671272E+00  1.16930251E+00 -1.92956529E+00  1.17623561E+00 -2.97335610E+00
  8.05280880E-01  4.52671272E+00 -1.16930251E+00  1.92956529E+00 -3.13695308E+00
  1.19555957E+00  7.12657182E-01 -1.72031412E+00  4.65162465E+00  1.86240388E+00
 -1.29845541E+00 -2.94693478E+00 -7.83407565E-01  1.62914631E+00 -4.69462554E+00
  2.20209063E+00 -3.13695308E+00 -1.19555957E+00 -7.12657182E-01 -4.90820295E+00
  1.59188116E+00  1.68973624E+00 -1.72031412E+00 -4.65162465E+00 -1.86240388E+00
 -4.90820295E+00 -1.59188116E+00 -1.68973624E+00
Number of symbols in /Mol/                 I                0
Force Field                                I                0
Atom Types                                 C   N=          16
                                                            
                                                            
                                                            
            
Int Atom Types                             I   N=          16
           0           0           0           0           0           0
           0           0           0           0           0           0
           0           0           0           0
MM charges                                 R   N=          16
  0.00000000E+00  0.00000000E+00  0.00000000E+00  0.00000000E+00  0.00000000E+00
  0.00000000E+00  0.00000000E+00  0.00000000E+00  0.00000000E+00  0.00000000E+00
  0.00000000E+00  0.00000000E+00  0.00000000E+00  0.00000000E+00  0.00000000E+00
  0.00000000E+00
Integer atomic weights                     I   N=          16
          14          11          14          12           1           1
          11           1          12           1          12           1
          12           1           1           1
Real atomic weights                        R   N=          16
  1.40030740E+01  1.10093053E+01  1.40030740E+01  1.20000000E+01  1.00782504E+00
  1.00782504E+00  1.10093053E+01  1.00782504E+00  1.20000000E+01  1.00782504E+00
  1.20000000E+01  1.00782504E+00  1.20000000E+01  1.00782504E+00  1.00782504E+00
  1.00782504E+00
Atom fragment info                         I   N=          16
           0           0           0           0           0           0
           0           0           0           0           0           0
           0           0           0           0
Atom residue num                           I   N=          16
           0           0           0           0           0           0
           0           0           0           0           0           0
           0           0           0           0
Nuclear spins                              I   N=          16
           2           3           2           0           1           1
           3           1           0           1           0           1
           0           1           1           1
Nuclear ZEff                               R   N=          16
 -4.55000000E+00 -2.75000000E+00 -4.55000000E+00 -3.60000000E+00 -1.00000000E+00
 -1.00000000E+00 -2.75000000E+00 -1.00000000E+00 -3.60000000E+00 -1.00000000E+00
 -3.60000000E+00 -1.00000000E+00 -3.60000000E+00 -1.00000000E+00 -1.00000000E+00
 -1.00000000E+00
Nuclear ZNuc                               R   N=          16
  7.00000000E+00  5.00000000E+00  7.00000000E+00  6.00000000E+00  1.00000000E+00
  1.00000000E+00  5.00000000E+00  1.00000000E+00  6.00000000E+00  1.00000000E+00
  6.00000000E+00  1.00000000E+00  6.00000000E+00  1.00000000E+00  1.00000000E+00
  1.00000000E+00
Nuclear QMom                               R   N=          16
  2.04400000E+00  4.05900000E+00  2.04400000E+00  0.00000000E+00  0.00000000E+00
  0.00000000E+00  4.05900000E+00  0.00000000E+00  0.00000000E+00  0.00000000E+00
  0.00000000E+00  0.00000000E+00  0.00000000E+00  0.00000000E+00  0.00000000E+00
  0.00000000E+00
Nuclear GFac                               R   N=          16
  4.03761000E-01  2.68863700E+00  4.03761000E-01  0.00000000E+00  2.79284600E+00
  2.79284600E+00  2.68863700E+00  2.79284600E+00  0.00000000E+00  2.79284600E+00
  0.00000000E+00  2.79284600E+00  0.00000000E+00  2.79284600E+00  2.79284600E+00
  2.79284600E+00
MicOpt                                     I   N=          16
          -1          -1          -1          -1          -1          -1
          -1          -1          -1          -1          -1          -1
          -1          -1          -1          -1
Number of residues                         I                0
Number of secondary structures             I                0
Number of contracted shells                I               72
Number of primitive shells                 I              144
Pure/Cartesian d shells                    I                0
Pure/Cartesian f shells                    I                0
Highest angular momentum                   I                2
Largest degree of contraction              I                6
Shell types                                I   N=          72
           0          -1          -1          -1          -2           0
          -1          -1          -1          -2           0          -1
          -1          -1          -2           0          -1          -1
          -1          -2           0           0           0           1
           0           0           0           1           0          -1
          -1          -1          -2           0           0           0
           1           0          -1          -1          -1          -2
           0           0           0           1           0          -1
          -1          -1          -2           0           0           0
           1           0          -1          -1          -1          -2
           0           0           0           1           0           0
           0           1           0           0           0           1
Number of primitives per shell             I   N=          72
           6           3           1           1           1           6
           3           1           1           1           6           3
           1           1           1           6           3           1
           1           1           3           1           1           1
           3           1           1           1           6           3
           1           1           1           3           1           1
           1           6           3           1           1           1
           3           1           1           1           6           3
           1           1           1           3           1           1
           1           6           3           1           1           1
           3           1           1           1           3           1
           1           1           3           1           1           1
Shell to atom map                          I   N=          72
           1           1           1           1           1           2
           2           2           2           2           3           3
           3           3           3           4           4           4
           4           4           5           5           5           5
           6           6           6           6           7           7
           7           7           7           8           8           8
           8           9           9           9           9           9
          10          10          10          10          11          11
          11          11          11          12          12          12
          12          13          13          13          13          13
          14          14          14          14          15          15
          15          15          16          16          16          16
Primitive exponents                        R   N=         144
  6.29348000E+03  9.49044000E+02  2.18776000E+02  6.36916000E+01  1.88282000E+01
  2.72023000E+00  3.06331000E+01  7.02614000E+00  2.11205000E+00  6.84009000E-01
  2.00878000E-01  9.13000000E-01  2.85889000E+03  4.28140000E+02  9.75282000E+01
  2.79693000E+01  8.21577000E+00  1.11278000E+00  1.32415000E+01  3.00166000E+00
  9.12856000E-01  3.15454000E-01  9.88563000E-02  4.01000000E-01  6.29348000E+03
  9.49044000E+02  2.18776000E+02  6.36916000E+01  1.88282000E+01  2.72023000E+00
  3.06331000E+01  7.02614000E+00  2.11205000E+00  6.84009000E-01  2.00878000E-01
  9.13000000E-01  4.56324000E+03  6.82024000E+02  1.54973000E+02  4.44553000E+01
  1.30290000E+01  1.82773000E+00  2.09642000E+01  4.80331000E+00  1.45933000E+00
  4.83456000E-01  1.45585000E-01  6.26000000E-01  3.38650000E+01  5.09479000E+00
  1.15879000E+00  3.25840000E-01  1.02741000E-01  7.50000000E-01  3.38650000E+01
  5.09479000E+00  1.15879000E+00  3.25840000E-01  1.02741000E-01  7.50000000E-01
  2.85889000E+03  4.28140000E+02  9.75282000E+01  2.79693000E+01  8.21577000E+00
  1.11278000E+00  1.32415000E+01  3.00166000E+00  9.12856000E-01  3.15454000E-01
  9.88563000E-02  4.01000000E-01  3.38650000E+01  5.09479000E+00  1.15879000E+00
  3.25840000E-01  1.02741000E-01  7.50000000E-01  4.56324000E+03  6.82024000E+02
  1.54973000E+02  4.44553000E+01  1.30290000E+01  1.82773000E+00  2.09642000E+01
  4.80331000E+00  1.45933000E+00  4.83456000E-01  1.45585000E-01  6.26000000E-01
  3.38650000E+01  5.09479000E+00  1.15879000E+00  3.25840000E-01  1.02741000E-01
  7.50000000E-01  4.56324000E+03  6.82024000E+02  1.54973000E+02  4.44553000E+01
  1.30290000E+01  1.82773000E+00  2.09642000E+01  4.80331000E+00  1.45933000E+00
  4.83456000E-01  1.45585000E-01  6.26000000E-01  3.38650000E+01  5.09479000E+00
  1.15879000E+00  3.25840000E-01  1.02741000E-01  7.50000000E-01  4.56324000E+03
  6.82024000E+02  1.54973000E+02  4.44553000E+01  1.30290000E+01  1.82773000E+00
  2.09642000E+01  4.80331000E+00  1.45933000E+00  4.83456000E-01  1.45585000E-01
  6.26000000E-01  3.38650000E+01  5.09479000E+00  1.15879000E+00  3.25840000E-01
  1.02741000E-01  7.50000000E-01  3.38650000E+01  5.09479000E+00  1.15879000E+00
  3.25840000E-01  1.02741000E-01  7.50000000E-01  3.38650000E+01  5.09479000E+00
  1.15879000E+00  3.25840000E-01  1.02741000E-01  7.50000000E-01
Contraction coefficients                   R   N=         144
  1.96978815E-03  1.49612859E-02  7.35005308E-02  2.48936766E-01  6.02459433E-01
  2.56201759E-01  1.11906080E-01  9.21666655E-01 -2.56919183E-03  1.00000000E+00
  1.00000000E+00  1.00000000E+00  2.15374907E-03  1.65822928E-02  8.21869644E-02
  2.76617880E-01  6.29315727E-01  1.73769925E-01  1.17442942E-01  9.18001549E-01
 -2.65104870E-03  1.00000000E+00  1.00000000E+00  1.00000000E+00  1.96978815E-03
  1.49612859E-02  7.35005308E-02  2.48936766E-01  6.02459433E-01  2.56201759E-01
  1.11906080E-01  9.21666655E-01 -2.56919183E-03  1.00000000E+00  1.00000000E+00
  1.00000000E+00  1.96665025E-03  1.52306019E-02  7.61269097E-02  2.60801033E-01
  6.16462078E-01  2.21006028E-01  1.14660081E-01  9.19999648E-01 -3.03068213E-03
  1.00000000E+00  1.00000000E+00  1.00000000E+00  2.54938145E-02  1.90373109E-01
  8.52161486E-01  1.00000000E+00  1.00000000E+00  1.00000000E+00  2.54938145E-02
  1.90373109E-01  8.52161486E-01  1.00000000E+00  1.00000000E+00  1.00000000E+00
  2.15374907E-03  1.65822928E-02  8.21869644E-02  2.76617880E-01  6.29315727E-01
  1.73769925E-01  1.17442942E-01  9.18001549E-01 -2.65104870E-03  1.00000000E+00
  1.00000000E+00  1.00000000E+00  2.54938145E-02  1.90373109E-01  8.52161486E-01
  1.00000000E+00  1.00000000E+00  1.00000000E+00  1.96665025E-03  1.52306019E-02
  7.61269097E-02  2.60801033E-01  6.16462078E-01  2.21006028E-01  1.14660081E-01
  9.19999648E-01 -3.03068213E-03  1.00000000E+00  1.00000000E+00  1.00000000E+00
  2.54938145E-02  1.90373109E-01  8.52161486E-01  1.00000000E+00  1.00000000E+00
  1.00000000E+00  1.96665025E-03  1.52306019E-02  7.61269097E-02  2.60801033E-01
  6.16462078E-01  2.21006028E-01  1.14660081E-01  9.19999648E-01 -3.03068213E-03
  1.00000000E+00  1.00000000E+00  1.00000000E+00  2.54938145E-02  1.90373109E-01
  8.52161486E-01  1.00000000E+00  1.00000000E+00  1.00000000E+00  1.96665025E-03
  1.52306019E-02  7.61269097E-02  2.60801033E-01  6.16462078E-01  2.21006028E-01
  1.14660081E-01  9.19999648E-01 -3.03068213E-03  1.00000000E+00  1.00000000E+00
  1.00000000E+00  2.54938145E-02  1.90373109E-01  8.52161486E-01  1.00000000E+00
  1.00000000E+00  1.00000000E+00  2.54938145E-02  1.90373109E-01  8.52161486E-01
  1.00000000E+00  1.00000000E+00  1.00000000E+00  2.54938145E-02  1.90373109E-01
  8.52161486E-01  1.00000000E+00  1.00000000E+00  1.00000000E+00
P(S=P) Contraction coefficients            R   N=         144
  0.00000000E+00  0.00000000E+00  0.00000000E+00  0.00000000E+00  0.00000000E+00
  0.00000000E+00  3.83119186E-02  2.37403116E-01  8.17592398E-01  1.00000000E+00
  1.00000000E+00  0.00000000E+00  0.00000000E+00  0.00000000E+00  0.00000000E+00
  0.00000000E+00  0.00000000E+00  0.00000000E+00  4.18099989E-02  2.36574994E-01
  8.16213978E-01  1.00000000E+00  1.00000000E+00  0.00000000E+00  0.00000000E+00
  0.00000000E+00  0.00000000E+00  0.00000000E+00  0.00000000E+00  0.00000000E+00
  3.83119186E-02  2.37403116E-01  8.17592398E-01  1.00000000E+00  1.00000000E+00
  0.00000000E+00  0.00000000E+00  0.00000000E+00  0.00000000E+00  0.00000000E+00
  0.00000000E+00  0.00000000E+00  4.02486927E-02  2.37593957E-01  8.15853851E-01
  1.00000000E+00  1.00000000E+00  0.00000000E+00  0.00000000E+00  0.00000000E+00
  0.00000000E+00  0.00000000E+00  0.00000000E+00  0.00000000E+00  0.00000000E+00
  0.00000000E+00  0.00000000E+00  0.00000000E+00  0.00000000E+00  0.00000000E+00
  0.00000000E+00  0.00000000E+00  0.00000000E+00  0.00000000E+00  0.00000000E+00
  0.00000000E+00  4.18099989E-02  2.36574994E-01  8.16213978E-01  1.00000000E+00
  1.00000000E+00  0.00000000E+00  0.00000000E+00  0.00000000E+00  0.00000000E+00
  0.00000000E+00  0.00000000E+00  0.00000000E+00  0.00000000E+00  0.00000000E+00
  0.00000000E+00  0.00000000E+00  0.00000000E+00  0.00000000E+00  4.02486927E-02
  2.37593957E-01  8.15853851E-01  1.00000000E+00  1.00000000E+00  0.00000000E+00
  0.00000000E+00  0.00000000E+00  0.00000000E+00  0.00000000E+00  0.00000000E+00
  0.00000000E+00  0.00000000E+00  0.00000000E+00  0.00000000E+00  0.00000000E+00
  0.00000000E+00  0.00000000E+00  4.02486927E-02  2.37593957E-01  8.15853851E-01
  1.00000000E+00  1.00000000E+00  0.00000000E+00  0.00000000E+00  0.00000000E+00
  0.00000000E+00  0.00000000E+00  0.00000000E+00  0.00000000E+00  0.00000000E+00
  0.00000000E+00  0.00000000E+00  0.00000000E+00  0.00000000E+00  0.00000000E+00
  4.02486927E-02  2.37593957E-01  8.15853851E-01  1.00000000E+00  1.00000000E+00
  0.00000000E+00  0.00000000E+00  0.00000000E+00  0.00000000E+00  0.00000000E+00
  0.00000000E+00  0.00000000E+00  0.00000000E+00  0.00000000E+00  0.00000000E+00
  0.00000000E+00  0.00000000E+00  0.00000000E+00  0.00000000E+00  0.00000000E+00
  0.00000000E+00  0.00000000E+00  0.00000000E+00  0.00000000E+00
Coordinates of each shell                  R   N=         216
  3.02913300E+00  1.10287684E+00 -7.44927544E-01  3.02913300E+00  1.10287684E+00
 -7.44927544E-01  3.02913300E+00  1.10287684E+00 -7.44927544E-01  3.02913300E+00
  1.10287684E+00 -7.44927544E-01  3.02913300E+00  1.10287684E+00 -7.44927544E-01
  1.17623561E+00  2.97335610E+00 -8.05280880E-01  1.17623561E+00  2.97335610E+00
 -8.05280880E-01  1.17623561E+00  2.97335610E+00 -8.05280880E-01  1.17623561E+00
  2.97335610E+00 -8.05280880E-01  1.17623561E+00  2.97335610E+00 -8.05280880E-01
  3.02913300E+00 -1.10287684E+00  7.44927544E-01  3.02913300E+00 -1.10287684E+00
  7.44927544E-01  3.02913300E+00 -1.10287684E+00  7.44927544E-01  3.02913300E+00
 -1.10287684E+00  7.44927544E-01  3.02913300E+00 -1.10287684E+00  7.44927544E-01
 -1.29845541E+00  2.94693478E+00  7.83407565E-01 -1.29845541E+00  2.94693478E+00
  7.83407565E-01 -1.29845541E+00  2.94693478E+00  7.83407565E-01 -1.29845541E+00
  2.94693478E+00  7.83407565E-01 -1.29845541E+00  2.94693478E+00  7.83407565E-01
  1.62914631E+00  4.69462554E+00 -2.20209063E+00  1.62914631E+00  4.69462554E+00
 -2.20209063E+00  1.62914631E+00  4.69462554E+00 -2.20209063E+00  1.62914631E+00
  4.69462554E+00 -2.20209063E+00  4.52671272E+00  1.16930251E+00 -1.92956529E+00
  4.52671272E+00  1.16930251E+00 -1.92956529E+00  4.52671272E+00  1.16930251E+00
 -1.92956529E+00  4.52671272E+00  1.16930251E+00 -1.92956529E+00  1.17623561E+00
 -2.97335610E+00  8.05280880E-01  1.17623561E+00 -2.97335610E+00  8.05280880E-01
  1.17623561E+00 -2.97335610E+00  8.05280880E-01  1.17623561E+00 -2.97335610E+00
  8.05280880E-01  1.17623561E+00 -2.97335610E+00  8.05280880E-01  4.52671272E+00
 -1.16930251E+00  1.92956529E+00  4.52671272E+00 -1.16930251E+00  1.92956529E+00
  4.52671272E+00 -1.16930251E+00  1.92956529E+00  4.52671272E+00 -1.16930251E+00
  1.92956529E+00 -3.13695308E+00  1.19555957E+00  7.12657182E-01 -3.13695308E+00
  1.19555957E+00  7.12657182E-01 -3.13695308E+00  1.19555957E+00  7.12657182E-01
 -3.13695308E+00  1.19555957E+00  7.12657182E-01 -3.13695308E+00  1.19555957E+00
  7.12657182E-01 -1.72031412E+00  4.65162465E+00  1.86240388E+00 -1.72031412E+00
  4.65162465E+00  1.86240388E+00 -1.72031412E+00  4.65162465E+00  1.86240388E+00
 -1.72031412E+00  4.65162465E+00  1.86240388E+00 -1.29845541E+00 -2.94693478E+00
 -7.83407565E-01 -1.29845541E+00 -2.94693478E+00 -7.83407565E-01 -1.29845541E+00
 -2.94693478E+00 -7.83407565E-01 -1.29845541E+00 -2.94693478E+00 -7.83407565E-01
 -1.29845541E+00 -2.94693478E+00 -7.83407565E-01  1.62914631E+00 -4.69462554E+00
  2.20209063E+00  1.62914631E+00 -4.69462554E+00  2.20209063E+00  1.62914631E+00
 -4.69462554E+00  2.20209063E+00  1.62914631E+00 -4.69462554E+00  2.20209063E+00
 -3.13695308E+00 -1.19555957E+00 -7.12657182E-01 -3.13695308E+00 -1.19555957E+00
 -7.12657182E-01 -3.13695308E+00 -1.19555957E+00 -7.12657182E-01 -3.13695308E+00
 -1.19555957E+00 -7.12657182E-01 -3.13695308E+00 -1.19555957E+00 -7.12657182E-01
 -4.90820295E+00  1.59188116E+00  1.68973624E+00 -4.90820295E+00  1.59188116E+00
  1.68973624E+00 -4.90820295E+00  1.59188116E+00  1.68973624E+00 -4.90820295E+00
  1.59188116E+00  1.68973624E+00 -1.72031412E+00 -4.65162465E+00 -1.86240388E+00
 -1.72031412E+00 -4.65162465E+00 -1.86240388E+00 -1.72031412E+00 -4.65162465E+00
 -1.86240388E+00 -1.72031412E+00 -4.65162465E+00 -1.86240388E+00 -4.90820295E+00
 -1.59188116E+00 -1.68973624E+00 -4.90820295E+00 -1.59188116E+00 -1.68973624E+00
 -4.90820295E+00 -1.59188116E+00 -1.68973624E+00 -4.90820295E+00 -1.59188116E+00
 -1.68973624E+00
Num ILSW                                   I              100
ILSW                                       I   N=         100
           0           0           0           0           2           0
           0           0           0           0         402          -1
           5           0           0           0           0           0
           0           0           0           0           0           0
           1           1           0           0           0           0
           0           0      100000           0          -1           0
           0           0           0           0           0           0
           0           0           0           1           0           0
           0 -2000000000           1           0           0           0
           0           0           4          52           0           0
           0           0           5           0           0           0
           0           0           0          16           0           1
           0           0           0           0           0           0
           0           0           0           0           0           0
           0           0           0           0           0           0
           0           0           0           0           0           0
           0           0           0           0
Num RLSW                                   I               52
RLSW                                       R   N=          52
  8.00000000E-01  7.20000000E-01  1.00000000E+00  8.10000000E-01  2.00000000E-01
  0.00000000E+00  0.00000000E+00  1.00000000E+00  0.00000000E+00  0.00000000E+00
  0.00000000E+00  0.00000000E+00  1.00000000E+00  0.00000000E+00  0.00000000E+00
  0.00000000E+00  0.00000000E+00  1.00000000E+00  0.00000000E+00  0.00000000E+00
  0.00000000E+00  0.00000000E+00  1.00000000E+00  0.00000000E+00  0.00000000E+00
  0.00000000E+00  0.00000000E+00  1.00000000E+00  0.00000000E+00  0.00000000E+00
  0.00000000E+00  0.00000000E+00  1.00000000E+00  0.00000000E+00  0.00000000E+00
  0.00000000E+00  0.00000000E+00  0.00000000E+00  1.00000000E+00  1.00000000E+00
  0.00000000E+00  1.00000000E+00  0.00000000E+00  0.00000000E+00  0.00000000E+00
  0.00000000E+00  0.00000000E+00  0.00000000E+00  0.00000000E+00  0.00000000E+00
  0.00000000E+00  0.00000000E+00
MxBond                                     I                3
NBond                                      I   N=          16
           3           3           3           3           1           1
           3           1           3           1           3           1
           3           1           1           1
IBond                                      I   N=          48
           2           3           6           1           4           5
           1           7           8           2           9          10
           2           0           0           1           0           0
           3          11          12           3           0           0
           4          13          14           4           0           0
           7          13          15           7           0           0
           9          11          16           9           0           0
          11           0           0          13           0           0
RBond                                      R   N=          48
  1.00000000E+00  1.00000000E+00  1.00000000E+00  1.00000000E+00  1.00000000E+00
  1.00000000E+00  1.00000000E+00  1.00000000E+00  1.00000000E+00  1.00000000E+00
  2.00000000E+00  1.00000000E+00  1.00000000E+00  0.00000000E+00  0.00000000E+00
  1.00000000E+00  0.00000000E+00  0.00000000E+00  1.00000000E+00  1.00000000E+00
  1.00000000E+00  1.00000000E+00  0.00000000E+00  0.00000000E+00  2.00000000E+00
  1.00000000E+00  1.00000000E+00  1.00000000E+00  0.00000000E+00  0.00000000E+00
  1.00000000E+00  2.00000000E+00  1.00000000E+00  1.00000000E+00  0.00000000E+00
  0.00000000E+00  1.00000000E+00  2.00000000E+00  1.00000000E+00  1.00000000E+00
  0.00000000E+00  0.00000000E+00  1.00000000E+00  0.00000000E+00  0.00000000E+00
  1.00000000E+00  0.00000000E+00  0.00000000E+00
Virial Ratio                               R      2.004357526547267E+00
SCF Energy                                 R     -3.165456044670049E+02
Total Energy                               R     -3.165456044670049E+02
RMS Density                                R      3.509822419181093E-09
Job Status                                 I                1
Nuclear derivative order                   I                0
External E-field                           R   N=          35
  0.00000000E+00  0.00000000E+00  0.00000000E+00  0.00000000E+00  0.00000000E+00
  0.00000000E+00  0.00000000E+00  0.00000000E+00  0.00000000E+00  0.00000000E+00
  0.00000000E+00  0.00000000E+00  0.00000000E+00  0.00000000E+00  0.00000000E+00
  0.00000000E+00  0.00000000E+00  0.00000000E+00  0.00000000E+00  0.00000000E+00
  0.00000000E+00  0.00000000E+00  0.00000000E+00  0.00000000E+00  0.00000000E+00
  0.00000000E+00  0.00000000E+00  0.00000000E+00  0.00000000E+00  0.00000000E+00
  0.00000000E+00  0.00000000E+00  0.00000000E+00  0.00000000E+00  0.00000000E+00
IOpCl                                      I                0
IROHF                                      I                0
Alpha Orbital Energies                     R   N=         192
 -1.43503986E+01 -1.43502549E+01 -1.01747846E+01 -1.01744691E+01 -1.01494154E+01
 -1.01494097E+01 -6.73074041E+00 -6.73072838E+00 -9.82687202E-01 -7.98370453E-01
 -7.85370879E-01 -7.24268968E-01 -6.19636698E-01 -5.56831953E-01 -5.45585310E-01
 -5.44376375E-01 -4.90859316E-01 -4.74422683E-01 -4.30205254E-01 -4.24432940E-01
 -3.97510917E-01 -3.53302077E-01 -3.32320090E-01 -3.29586509E-01 -3.11765202E-01
 -2.91854530E-01 -2.71702982E-01 -2.32611476E-01 -4.31455609E-02  1.80128439E-03
  2.91784359E-02  3.54984133E-02  6.61922094E-02  7.22987256E-02  7.42688748E-02
  8.44102236E-02  1.14103722E-01  1.18720412E-01  1.37789347E-01  1.37995750E-01
  1.73004866E-01  2.06306970E-01  2.20126619E-01  2.28944521E-01  2.53405739E-01
  2.77544103E-01  2.89360620E-01  2.91968474E-01  3.19084798E-01  3.50644253E-01
  3.57571826E-01  3.76025807E-01  3.77320483E-01  3.77874784E-01  4.25372791E-01
  4.29377375E-01  4.48152949E-01  4.57144872E-01  4.84010387E-01  4.88942988E-01
  4.92782147E-01  4.97897146E-01  5.15683130E-01  5.37566611E-01  5.51381863E-01
  5.63101598E-01  5.72315230E-01  5.93551090E-01  5.96221273E-01  6.09725896E-01
  6.25613598E-01  6.33947828E-01  6.50796889E-01  6.71078057E-01  6.86723576E-01
  7.29567874E-01  7.39329482E-01  7.59358543E-01  7.88113537E-01  7.99369172E-01
  8.07676750E-01  8.21031936E-01  8.49879779E-01  8.56412701E-01  8.94060274E-01
  9.06004257E-01  9.17283742E-01  9.89391266E-01  1.04647979E+00  1.04900933E+00
  1.06041144E+00  1.06454200E+00  1.11087518E+00  1.12334547E+00  1.18590632E+00
  1.21100256E+00  1.24499786E+00  1.25614751E+00  1.30176223E+00  1.33232463E+00
  1.36018013E+00  1.41135585E+00  1.44119731E+00  1.45642880E+00  1.47298277E+00
  1.50106629E+00  1.52208516E+00  1.56138627E+00  1.58513939E+00  1.60454181E+00
  1.64732364E+00  1.66276501E+00  1.68319102E+00  1.68719006E+00  1.71976711E+00
  1.74421406E+00  1.77092557E+00  1.77859155E+00  1.79528669E+00  1.79871313E+00
  1.80935576E+00  1.81986397E+00  1.85606246E+00  1.87589138E+00  1.89410557E+00
  1.90945524E+00  1.91672691E+00  1.93011000E+00  1.96452755E+00  2.01085342E+00
  2.06106292E+00  2.08062024E+00  2.10536389E+00  2.12100547E+00  2.17509766E+00
  2.19728782E+00  2.22228645E+00  2.26918269E+00  2.28009942E+00  2.29731985E+00
  2.34081203E+00  2.36521198E+00  2.39577239E+00  2.42034085E+00  2.47044754E+00
  2.51151187E+00  2.51484262E+00  2.53161663E+00  2.57565318E+00  2.57970701E+00
  2.59955517E+00  2.62176284E+00  2.63698962E+00  2.65060197E+00  2.66566712E+00
  2.69137577E+00  2.71368437E+00  2.71428596E+00  2.75185366E+00  2.78045955E+00
  2.79863365E+00  2.81043899E+00  2.87006378E+00  2.87488070E+00  2.92134481E+00
  2.96651049E+00  2.98232674E+00  3.06871155E+00  3.13148112E+00  3.18552813E+00
  3.32811732E+00  3.43834900E+00  3.50265266E+00  3.63520019E+00  3.65509683E+00
  3.77832828E+00  3.82574484E+00  3.93413981E+00  3.99522312E+00  4.05520504E+00
  4.27523521E+00  4.64047415E+00  4.69355457E+00  5.17220507E+00  1.46886269E+01
  1.47512117E+01  2.36346866E+01  2.37877970E+01  2.42155138E+01  2.42769795E+01
  3.55065590E+01  3.55086605E+01
Alpha MO coefficients                      R   N=       36864
  3.94122190E-01  3.29338216E-01  3.16500568E-04 -7.75640407E-04  3.01568667E-04
  1.10813203E-02 -2.06029385E-04  9.62323127E-04 -7.25222047E-04 -3.57743956E-03
  1.22809612E-03  1.34481611E-04 -7.87596856E-04 -1.36961115E-04 -5.35470358E-04
  1.01329851E-04  3.96822595E-04 -2.68832021E-04 -4.32710919E-05  1.36255414E-04
  2.16279927E-04 -2.29538623E-04 -2.27568608E-05  1.13123092E-06 -1.10979569E-03
  1.57213124E-03 -1.64960944E-04  9.08120320E-04  6.38308493E-05 -2.49319006E-03
  1.56316861E-03  6.34043145E-04 -4.57964952E-04 -5.82262512E-04 -1.91204201E-04
  1.22928089E-03  3.94122190E-01  3.29338216E-01  3.16500568E-04  7.75640407E-04
 -3.01568667E-04  1.10813203E-02 -2.06029385E-04 -9.62323127E-04  7.25222047E-04
 -3.57743956E-03  1.22809612E-03 -1.34481611E-04  7.87596856E-04 -1.36961115E-04
  5.35470358E-04  1.01329851E-04  3.96822595E-04  2.68832021E-04 -2.29261097E-06
  1.99464875E-05  1.18106087E-04 -2.91038969E-05 -6.02578940E-05 -1.98257684E-05