Title Card Required                                                     
SP        RB3LYP                                                      6-311G(d,p)         
Number of atoms                            I               16
Info1-9                                    I   N=           9
          23          23           0           0           0         110
           1          18        -502
Full Title                                 C   N=           2
Title Card Required     
Route                                      C   N=           5
#p b3lyp/6-311g(d,p) nosymm pop=nbo density=current         
Charge                                     I                0
Multiplicity                               I                1
Number of electrons                        I               56
Number of alpha electrons                  I               28
Number of beta electrons                   I               28
Number of basis functions                  I              192
Number of independent functions            I              192
Number of point charges in /Mol/           I                0
Number of translation vectors              I                0
Atomic numbers                             I   N=          16
           6           6           1           1           1           1
           1           1           1           1           5           7
           6           6           5           7
Nuclear charges                            R   N=          16
  6.00000000E+00  6.00000000E+00  1.00000000E+00  1.00000000E+00  1.00000000E+00
  1.00000000E+00  1.00000000E+00  1.00000000E+00  1.00000000E+00  1.00000000E+00
  5.00000000E+00  7.00000000E+00  6.00000000E+00  6.00000000E+00  5.00000000E+00
  7.00000000E+00
Current cartesian coordinates              R   N=          48
  3.17315441E+00 -1.13778709E+00  2.94347521E-01  1.35591629E+00 -2.79917383E+00
 -2.94347521E-01  5.11780920E+00 -1.62033811E+00 -1.62471093E-01  4.24764323E+00
  1.46936033E+00  2.89145294E+00  1.15627806E+00  4.79270639E+00  2.66220648E+00
 -1.15627806E+00  4.79270639E+00 -2.66220648E+00 -4.24764323E+00  1.46936033E+00
 -2.89145294E+00 -5.11780920E+00 -1.62033811E+00  1.62471093E-01 -2.01603164E+00
 -4.51916097E+00  1.20877276E+00  2.01603164E+00 -4.51916097E+00 -1.20877276E+00
  1.04954255E+00  3.05611800E+00  1.20612715E+00  2.87987269E+00  1.17408495E+00
  1.58593753E+00 -1.35591629E+00 -2.79917383E+00  2.94347521E-01 -3.17315441E+00
 -1.13778709E+00 -2.94347521E-01 -1.04954255E+00  3.05611800E+00 -1.20612715E+00
 -2.87987269E+00  1.17408495E+00 -1.58593753E+00
Number of symbols in /Mol/                 I                0
Force Field                                I                0
Atom Types                                 C   N=          16
                                                            
                                                            
                                                            
            
Int Atom Types                             I   N=          16
           0           0           0           0           0           0
           0           0           0           0           0           0
           0           0           0           0
MM charges                                 R   N=          16
  0.00000000E+00  0.00000000E+00  0.00000000E+00  0.00000000E+00  0.00000000E+00
  0.00000000E+00  0.00000000E+00  0.00000000E+00  0.00000000E+00  0.00000000E+00
  0.00000000E+00  0.00000000E+00  0.00000000E+00  0.00000000E+00  0.00000000E+00
  0.00000000E+00
Integer atomic weights                     I   N=          16
          12          12           1           1           1           1
           1           1           1           1          11          14
          12          12          11          14
Real atomic weights                        R   N=          16
  1.20000000E+01  1.20000000E+01  1.00782504E+00  1.00782504E+00  1.00782504E+00
  1.00782504E+00  1.00782504E+00  1.00782504E+00  1.00782504E+00  1.00782504E+00
  1.10093053E+01  1.40030740E+01  1.20000000E+01  1.20000000E+01  1.10093053E+01
  1.40030740E+01
Atom fragment info                         I   N=          16
           0           0           0           0           0           0
           0           0           0           0           0           0
           0           0           0           0
Atom residue num                           I   N=          16
           0           0           0           0           0           0
           0           0           0           0           0           0
           0           0           0           0
Nuclear spins                              I   N=          16
           0           0           1           1           1           1
           1           1           1           1           3           2
           0           0           3           2
Nuclear ZEff                               R   N=          16
 -3.60000000E+00 -3.60000000E+00 -1.00000000E+00 -1.00000000E+00 -1.00000000E+00
 -1.00000000E+00 -1.00000000E+00 -1.00000000E+00 -1.00000000E+00 -1.00000000E+00
 -2.75000000E+00 -4.55000000E+00 -3.60000000E+00 -3.60000000E+00 -2.75000000E+00
 -4.55000000E+00
Nuclear ZNuc                               R   N=          16
  6.00000000E+00  6.00000000E+00  1.00000000E+00  1.00000000E+00  1.00000000E+00
  1.00000000E+00  1.00000000E+00  1.00000000E+00  1.00000000E+00  1.00000000E+00
  5.00000000E+00  7.00000000E+00  6.00000000E+00  6.00000000E+00  5.00000000E+00
  7.00000000E+00
Nuclear QMom                               R   N=          16
  0.00000000E+00  0.00000000E+00  0.00000000E+00  0.00000000E+00  0.00000000E+00
  0.00000000E+00  0.00000000E+00  0.00000000E+00  0.00000000E+00  0.00000000E+00
  4.05900000E+00  2.04400000E+00  0.00000000E+00  0.00000000E+00  4.05900000E+00
  2.04400000E+00
Nuclear GFac                               R   N=          16
  0.00000000E+00  0.00000000E+00  2.79284600E+00  2.79284600E+00  2.79284600E+00
  2.79284600E+00  2.79284600E+00  2.79284600E+00  2.79284600E+00  2.79284600E+00
  2.68863700E+00  4.03761000E-01  0.00000000E+00  0.00000000E+00  2.68863700E+00
  4.03761000E-01
MicOpt                                     I   N=          16
          -1          -1          -1          -1          -1          -1
          -1          -1          -1          -1          -1          -1
          -1          -1          -1          -1
Number of residues                         I                0
Number of secondary structures             I                0
Number of contracted shells                I               72
Number of primitive shells                 I              144
Pure/Cartesian d shells                    I                0
Pure/Cartesian f shells                    I                0
Highest angular momentum                   I                2
Largest degree of contraction              I                6
Shell types                                I   N=          72
           0          -1          -1          -1          -2           0
          -1          -1          -1          -2           0           0
           0           1           0           0           0           1
           0           0           0           1           0           0
           0           1           0           0           0           1
           0           0           0           1           0           0
           0           1           0           0           0           1
           0          -1          -1          -1          -2           0
          -1          -1          -1          -2           0          -1
          -1          -1          -2           0          -1          -1
          -1          -2           0          -1          -1          -1
          -2           0          -1          -1          -1          -2
Number of primitives per shell             I   N=          72
           6           3           1           1           1           6
           3           1           1           1           3           1
           1           1           3           1           1           1
           3           1           1           1           3           1
           1           1           3           1           1           1
           3           1           1           1           3           1
           1           1           3           1           1           1
           6           3           1           1           1           6
           3           1           1           1           6           3
           1           1           1           6           3           1
           1           1           6           3           1           1
           1           6           3           1           1           1
Shell to atom map                          I   N=          72
           1           1           1           1           1           2
           2           2           2           2           3           3
           3           3           4           4           4           4
           5           5           5           5           6           6
           6           6           7           7           7           7
           8           8           8           8           9           9
           9           9          10          10          10          10
          11          11          11          11          11          12
          12          12          12          12          13          13
          13          13          13          14          14          14
          14          14          15          15          15          15
          15          16          16          16          16          16
Primitive exponents                        R   N=         144
  4.56324000E+03  6.82024000E+02  1.54973000E+02  4.44553000E+01  1.30290000E+01
  1.82773000E+00  2.09642000E+01  4.80331000E+00  1.45933000E+00  4.83456000E-01
  1.45585000E-01  6.26000000E-01  4.56324000E+03  6.82024000E+02  1.54973000E+02
  4.44553000E+01  1.30290000E+01  1.82773000E+00  2.09642000E+01  4.80331000E+00
  1.45933000E+00  4.83456000E-01  1.45585000E-01  6.26000000E-01  3.38650000E+01
  5.09479000E+00  1.15879000E+00  3.25840000E-01  1.02741000E-01  7.50000000E-01
  3.38650000E+01  5.09479000E+00  1.15879000E+00  3.25840000E-01  1.02741000E-01
  7.50000000E-01  3.38650000E+01  5.09479000E+00  1.15879000E+00  3.25840000E-01
  1.02741000E-01  7.50000000E-01  3.38650000E+01  5.09479000E+00  1.15879000E+00
  3.25840000E-01  1.02741000E-01  7.50000000E-01  3.38650000E+01  5.09479000E+00
  1.15879000E+00  3.25840000E-01  1.02741000E-01  7.50000000E-01  3.38650000E+01
  5.09479000E+00  1.15879000E+00  3.25840000E-01  1.02741000E-01  7.50000000E-01
  3.38650000E+01  5.09479000E+00  1.15879000E+00  3.25840000E-01  1.02741000E-01
  7.50000000E-01  3.38650000E+01  5.09479000E+00  1.15879000E+00  3.25840000E-01
  1.02741000E-01  7.50000000E-01  2.85889000E+03  4.28140000E+02  9.75282000E+01
  2.79693000E+01  8.21577000E+00  1.11278000E+00  1.32415000E+01  3.00166000E+00
  9.12856000E-01  3.15454000E-01  9.88563000E-02  4.01000000E-01  6.29348000E+03
  9.49044000E+02  2.18776000E+02  6.36916000E+01  1.88282000E+01  2.72023000E+00
  3.06331000E+01  7.02614000E+00  2.11205000E+00  6.84009000E-01  2.00878000E-01
  9.13000000E-01  4.56324000E+03  6.82024000E+02  1.54973000E+02  4.44553000E+01
  1.30290000E+01  1.82773000E+00  2.09642000E+01  4.80331000E+00  1.45933000E+00
  4.83456000E-01  1.45585000E-01  6.26000000E-01  4.56324000E+03  6.82024000E+02
  1.54973000E+02  4.44553000E+01  1.30290000E+01  1.82773000E+00  2.09642000E+01
  4.80331000E+00  1.45933000E+00  4.83456000E-01  1.45585000E-01  6.26000000E-01
  2.85889000E+03  4.28140000E+02  9.75282000E+01  2.79693000E+01  8.21577000E+00
  1.11278000E+00  1.32415000E+01  3.00166000E+00  9.12856000E-01  3.15454000E-01
  9.88563000E-02  4.01000000E-01  6.29348000E+03  9.49044000E+02  2.18776000E+02
  6.36916000E+01  1.88282000E+01  2.72023000E+00  3.06331000E+01  7.02614000E+00
  2.11205000E+00  6.84009000E-01  2.00878000E-01  9.13000000E-01
Contraction coefficients                   R   N=         144
  1.96665025E-03  1.52306019E-02  7.61269097E-02  2.60801033E-01  6.16462078E-01
  2.21006028E-01  1.14660081E-01  9.19999648E-01 -3.03068213E-03  1.00000000E+00
  1.00000000E+00  1.00000000E+00  1.96665025E-03  1.52306019E-02  7.61269097E-02
  2.60801033E-01  6.16462078E-01  2.21006028E-01  1.14660081E-01  9.19999648E-01
 -3.03068213E-03  1.00000000E+00  1.00000000E+00  1.00000000E+00  2.54938145E-02
  1.90373109E-01  8.52161486E-01  1.00000000E+00  1.00000000E+00  1.00000000E+00
  2.54938145E-02  1.90373109E-01  8.52161486E-01  1.00000000E+00  1.00000000E+00
  1.00000000E+00  2.54938145E-02  1.90373109E-01  8.52161486E-01  1.00000000E+00
  1.00000000E+00  1.00000000E+00  2.54938145E-02  1.90373109E-01  8.52161486E-01
  1.00000000E+00  1.00000000E+00  1.00000000E+00  2.54938145E-02  1.90373109E-01
  8.52161486E-01  1.00000000E+00  1.00000000E+00  1.00000000E+00  2.54938145E-02
  1.90373109E-01  8.52161486E-01  1.00000000E+00  1.00000000E+00  1.00000000E+00
  2.54938145E-02  1.90373109E-01  8.52161486E-01  1.00000000E+00  1.00000000E+00
  1.00000000E+00  2.54938145E-02  1.90373109E-01  8.52161486E-01  1.00000000E+00
  1.00000000E+00  1.00000000E+00  2.15374907E-03  1.65822928E-02  8.21869644E-02
  2.76617880E-01  6.29315727E-01  1.73769925E-01  1.17442942E-01  9.18001549E-01
 -2.65104870E-03  1.00000000E+00  1.00000000E+00  1.00000000E+00  1.96978815E-03
  1.49612859E-02  7.35005308E-02  2.48936766E-01  6.02459433E-01  2.56201759E-01
  1.11906080E-01  9.21666655E-01 -2.56919183E-03  1.00000000E+00  1.00000000E+00
  1.00000000E+00  1.96665025E-03  1.52306019E-02  7.61269097E-02  2.60801033E-01
  6.16462078E-01  2.21006028E-01  1.14660081E-01  9.19999648E-01 -3.03068213E-03
  1.00000000E+00  1.00000000E+00  1.00000000E+00  1.96665025E-03  1.52306019E-02
  7.61269097E-02  2.60801033E-01  6.16462078E-01  2.21006028E-01  1.14660081E-01
  9.19999648E-01 -3.03068213E-03  1.00000000E+00  1.00000000E+00  1.00000000E+00
  2.15374907E-03  1.65822928E-02  8.21869644E-02  2.76617880E-01  6.29315727E-01
  1.73769925E-01  1.17442942E-01  9.18001549E-01 -2.65104870E-03  1.00000000E+00
  1.00000000E+00  1.00000000E+00  1.96978815E-03  1.49612859E-02  7.35005308E-02
  2.48936766E-01  6.02459433E-01  2.56201759E-01  1.11906080E-01  9.21666655E-01
 -2.56919183E-03  1.00000000E+00  1.00000000E+00  1.00000000E+00
P(S=P) Contraction coefficients            R   N=         144
  0.00000000E+00  0.00000000E+00  0.00000000E+00  0.00000000E+00  0.00000000E+00
  0.00000000E+00  4.02486927E-02  2.37593957E-01  8.15853851E-01  1.00000000E+00
  1.00000000E+00  0.00000000E+00  0.00000000E+00  0.00000000E+00  0.00000000E+00
  0.00000000E+00  0.00000000E+00  0.00000000E+00  4.02486927E-02  2.37593957E-01
  8.15853851E-01  1.00000000E+00  1.00000000E+00  0.00000000E+00  0.00000000E+00
  0.00000000E+00  0.00000000E+00  0.00000000E+00  0.00000000E+00  0.00000000E+00
  0.00000000E+00  0.00000000E+00  0.00000000E+00  0.00000000E+00  0.00000000E+00
  0.00000000E+00  0.00000000E+00  0.00000000E+00  0.00000000E+00  0.00000000E+00
  0.00000000E+00  0.00000000E+00  0.00000000E+00  0.00000000E+00  0.00000000E+00
  0.00000000E+00  0.00000000E+00  0.00000000E+00  0.00000000E+00  0.00000000E+00
  0.00000000E+00  0.00000000E+00  0.00000000E+00  0.00000000E+00  0.00000000E+00
  0.00000000E+00  0.00000000E+00  0.00000000E+00  0.00000000E+00  0.00000000E+00
  0.00000000E+00  0.00000000E+00  0.00000000E+00  0.00000000E+00  0.00000000E+00
  0.00000000E+00  0.00000000E+00  0.00000000E+00  0.00000000E+00  0.00000000E+00
  0.00000000E+00  0.00000000E+00  0.00000000E+00  0.00000000E+00  0.00000000E+00
  0.00000000E+00  0.00000000E+00  0.00000000E+00  4.18099989E-02  2.36574994E-01
  8.16213978E-01  1.00000000E+00  1.00000000E+00  0.00000000E+00  0.00000000E+00
  0.00000000E+00  0.00000000E+00  0.00000000E+00  0.00000000E+00  0.00000000E+00
  3.83119186E-02  2.37403116E-01  8.17592398E-01  1.00000000E+00  1.00000000E+00
  0.00000000E+00  0.00000000E+00  0.00000000E+00  0.00000000E+00  0.00000000E+00
  0.00000000E+00  0.00000000E+00  4.02486927E-02  2.37593957E-01  8.15853851E-01
  1.00000000E+00  1.00000000E+00  0.00000000E+00  0.00000000E+00  0.00000000E+00
  0.00000000E+00  0.00000000E+00  0.00000000E+00  0.00000000E+00  4.02486927E-02
  2.37593957E-01  8.15853851E-01  1.00000000E+00  1.00000000E+00  0.00000000E+00
  0.00000000E+00  0.00000000E+00  0.00000000E+00  0.00000000E+00  0.00000000E+00
  0.00000000E+00  4.18099989E-02  2.36574994E-01  8.16213978E-01  1.00000000E+00
  1.00000000E+00  0.00000000E+00  0.00000000E+00  0.00000000E+00  0.00000000E+00
  0.00000000E+00  0.00000000E+00  0.00000000E+00  3.83119186E-02  2.37403116E-01
  8.17592398E-01  1.00000000E+00  1.00000000E+00  0.00000000E+00
Coordinates of each shell                  R   N=         216
  3.17315441E+00 -1.13778709E+00  2.94347521E-01  3.17315441E+00 -1.13778709E+00
  2.94347521E-01  3.17315441E+00 -1.13778709E+00  2.94347521E-01  3.17315441E+00
 -1.13778709E+00  2.94347521E-01  3.17315441E+00 -1.13778709E+00  2.94347521E-01
  1.35591629E+00 -2.79917383E+00 -2.94347521E-01  1.35591629E+00 -2.79917383E+00
 -2.94347521E-01  1.35591629E+00 -2.79917383E+00 -2.94347521E-01  1.35591629E+00
 -2.79917383E+00 -2.94347521E-01  1.35591629E+00 -2.79917383E+00 -2.94347521E-01
  5.11780920E+00 -1.62033811E+00 -1.62471093E-01  5.11780920E+00 -1.62033811E+00
 -1.62471093E-01  5.11780920E+00 -1.62033811E+00 -1.62471093E-01  5.11780920E+00
 -1.62033811E+00 -1.62471093E-01  4.24764323E+00  1.46936033E+00  2.89145294E+00
  4.24764323E+00  1.46936033E+00  2.89145294E+00  4.24764323E+00  1.46936033E+00
  2.89145294E+00  4.24764323E+00  1.46936033E+00  2.89145294E+00  1.15627806E+00
  4.79270639E+00  2.66220648E+00  1.15627806E+00  4.79270639E+00  2.66220648E+00
  1.15627806E+00  4.79270639E+00  2.66220648E+00  1.15627806E+00  4.79270639E+00
  2.66220648E+00 -1.15627806E+00  4.79270639E+00 -2.66220648E+00 -1.15627806E+00
  4.79270639E+00 -2.66220648E+00 -1.15627806E+00  4.79270639E+00 -2.66220648E+00
 -1.15627806E+00  4.79270639E+00 -2.66220648E+00 -4.24764323E+00  1.46936033E+00
 -2.89145294E+00 -4.24764323E+00  1.46936033E+00 -2.89145294E+00 -4.24764323E+00
  1.46936033E+00 -2.89145294E+00 -4.24764323E+00  1.46936033E+00 -2.89145294E+00
 -5.11780920E+00 -1.62033811E+00  1.62471093E-01 -5.11780920E+00 -1.62033811E+00
  1.62471093E-01 -5.11780920E+00 -1.62033811E+00  1.62471093E-01 -5.11780920E+00
 -1.62033811E+00  1.62471093E-01 -2.01603164E+00 -4.51916097E+00  1.20877276E+00
 -2.01603164E+00 -4.51916097E+00  1.20877276E+00 -2.01603164E+00 -4.51916097E+00
  1.20877276E+00 -2.01603164E+00 -4.51916097E+00  1.20877276E+00  2.01603164E+00
 -4.51916097E+00 -1.20877276E+00  2.01603164E+00 -4.51916097E+00 -1.20877276E+00
  2.01603164E+00 -4.51916097E+00 -1.20877276E+00  2.01603164E+00 -4.51916097E+00
 -1.20877276E+00  1.04954255E+00  3.05611800E+00  1.20612715E+00  1.04954255E+00
  3.05611800E+00  1.20612715E+00  1.04954255E+00  3.05611800E+00  1.20612715E+00
  1.04954255E+00  3.05611800E+00  1.20612715E+00  1.04954255E+00  3.05611800E+00
  1.20612715E+00  2.87987269E+00  1.17408495E+00  1.58593753E+00  2.87987269E+00
  1.17408495E+00  1.58593753E+00  2.87987269E+00  1.17408495E+00  1.58593753E+00
  2.87987269E+00  1.17408495E+00  1.58593753E+00  2.87987269E+00  1.17408495E+00
  1.58593753E+00 -1.35591629E+00 -2.79917383E+00  2.94347521E-01 -1.35591629E+00
 -2.79917383E+00  2.94347521E-01 -1.35591629E+00 -2.79917383E+00  2.94347521E-01
 -1.35591629E+00 -2.79917383E+00  2.94347521E-01 -1.35591629E+00 -2.79917383E+00
  2.94347521E-01 -3.17315441E+00 -1.13778709E+00 -2.94347521E-01 -3.17315441E+00
 -1.13778709E+00 -2.94347521E-01 -3.17315441E+00 -1.13778709E+00 -2.94347521E-01
 -3.17315441E+00 -1.13778709E+00 -2.94347521E-01 -3.17315441E+00 -1.13778709E+00
 -2.94347521E-01 -1.04954255E+00  3.05611800E+00 -1.20612715E+00 -1.04954255E+00
  3.05611800E+00 -1.20612715E+00 -1.04954255E+00  3.05611800E+00 -1.20612715E+00
 -1.04954255E+00  3.05611800E+00 -1.20612715E+00 -1.04954255E+00  3.05611800E+00
 -1.20612715E+00 -2.87987269E+00  1.17408495E+00 -1.58593753E+00 -2.87987269E+00
  1.17408495E+00 -1.58593753E+00 -2.87987269E+00  1.17408495E+00 -1.58593753E+00
 -2.87987269E+00  1.17408495E+00 -1.58593753E+00 -2.87987269E+00  1.17408495E+00
 -1.58593753E+00
Num ILSW                                   I              100
ILSW                                       I   N=         100
           0           0           0           0           2           0
           0           0           0           0         402          -1
           5           0           0           0           0           0
           0           0           0           0           0           0
           1           1           0           0           0           0
           0           0      100000           0          -1           0
           0           0           0           0           0           0
           0           0           0           1           0           0
           0 -2000000000           1           0           0           0
           0           0           4          52           0           0
           0           0           5           0           0           0
           0           0           0          16           0           1
           0           0           0           0           0           0
           0           0           0           0           0           0
           0           0           0           0           0           0
           0           0           0           0           0           0
           0           0           0           0
Num RLSW                                   I               52
RLSW                                       R   N=          52
  8.00000000E-01  7.20000000E-01  1.00000000E+00  8.10000000E-01  2.00000000E-01
  0.00000000E+00  0.00000000E+00  1.00000000E+00  0.00000000E+00  0.00000000E+00
  0.00000000E+00  0.00000000E+00  1.00000000E+00  0.00000000E+00  0.00000000E+00
  0.00000000E+00  0.00000000E+00  1.00000000E+00  0.00000000E+00  0.00000000E+00
  0.00000000E+00  0.00000000E+00  1.00000000E+00  0.00000000E+00  0.00000000E+00
  0.00000000E+00  0.00000000E+00  1.00000000E+00  0.00000000E+00  0.00000000E+00
  0.00000000E+00  0.00000000E+00  1.00000000E+00  0.00000000E+00  0.00000000E+00
  0.00000000E+00  0.00000000E+00  0.00000000E+00  1.00000000E+00  1.00000000E+00
  0.00000000E+00  1.00000000E+00  0.00000000E+00  0.00000000E+00  0.00000000E+00
  0.00000000E+00  0.00000000E+00  0.00000000E+00  0.00000000E+00  0.00000000E+00
  0.00000000E+00  0.00000000E+00
MxBond                                     I                3
NBond                                      I   N=          16
           3           3           1           1           1           1
           1           1           1           1           3           3
           3           3           3           3
IBond                                      I   N=          48
           2           3          12           1          10          13
           1           0           0          12           0           0
          11           0           0          15           0           0
          16           0           0          14           0           0
          13           0           0           2           0           0
           5          12          15           1           4          11
           2           9          14           8          13          16
           6          11          16           7          14          15
RBond                                      R   N=          48
  2.00000000E+00  1.00000000E+00  1.00000000E+00  2.00000000E+00  1.00000000E+00
  1.00000000E+00  1.00000000E+00  0.00000000E+00  0.00000000E+00  1.00000000E+00
  0.00000000E+00  0.00000000E+00  1.00000000E+00  0.00000000E+00  0.00000000E+00
  1.00000000E+00  0.00000000E+00  0.00000000E+00  1.00000000E+00  0.00000000E+00
  0.00000000E+00  1.00000000E+00  0.00000000E+00  0.00000000E+00  1.00000000E+00
  0.00000000E+00  0.00000000E+00  1.00000000E+00  0.00000000E+00  0.00000000E+00
  1.00000000E+00  1.00000000E+00  1.00000000E+00  1.00000000E+00  1.00000000E+00
  1.00000000E+00  1.00000000E+00  1.00000000E+00  2.00000000E+00  1.00000000E+00
  2.00000000E+00  1.00000000E+00  1.00000000E+00  1.00000000E+00  1.00000000E+00
  1.00000000E+00  1.00000000E+00  1.00000000E+00
Virial Ratio                               R      2.004369900331442E+00
SCF Energy                                 R     -3.165541343200106E+02
Total Energy                               R     -3.165541343200106E+02
RMS Density                                R      5.449242745216219E-09
Job Status                                 I                1
Nuclear derivative order                   I                0
External E-field                           R   N=          35
  0.00000000E+00  0.00000000E+00  0.00000000E+00  0.00000000E+00  0.00000000E+00
  0.00000000E+00  0.00000000E+00  0.00000000E+00  0.00000000E+00  0.00000000E+00
  0.00000000E+00  0.00000000E+00  0.00000000E+00  0.00000000E+00  0.00000000E+00
  0.00000000E+00  0.00000000E+00  0.00000000E+00  0.00000000E+00  0.00000000E+00
  0.00000000E+00  0.00000000E+00  0.00000000E+00  0.00000000E+00  0.00000000E+00
  0.00000000E+00  0.00000000E+00  0.00000000E+00  0.00000000E+00  0.00000000E+00
  0.00000000E+00  0.00000000E+00  0.00000000E+00  0.00000000E+00  0.00000000E+00
IOpCl                                      I                0
IROHF                                      I                0
Alpha Orbital Energies                     R   N=         192
 -1.43220768E+01 -1.43220720E+01 -1.02071281E+01 -1.02071258E+01 -1.01746938E+01
 -1.01743728E+01 -6.70971836E+00 -6.70935351E+00 -9.14015743E-01 -9.05408835E-01
 -7.86210590E-01 -7.21726326E-01 -6.22100803E-01 -5.58200272E-01 -5.52761640E-01
 -5.15030267E-01 -5.11272543E-01 -4.60107136E-01 -4.51691073E-01 -4.22376782E-01
 -4.08195155E-01 -3.66759172E-01 -3.50878152E-01 -3.25390293E-01 -3.20409041E-01
 -2.70801592E-01 -2.63697424E-01 -2.21574053E-01 -4.04989579E-02  7.65189984E-03
  2.64965618E-02  3.42840493E-02  5.44020622E-02  7.14257138E-02  7.79813250E-02
  8.79430750E-02  1.13588353E-01  1.27157038E-01  1.36770261E-01  1.42059770E-01
  1.96004412E-01  2.21255866E-01  2.26582710E-01  2.69405804E-01  2.69478411E-01
  2.87403808E-01  2.96549596E-01  3.13480801E-01  3.27928783E-01  3.30386569E-01
  3.58935612E-01  3.72553597E-01  3.75021387E-01  3.89809460E-01  4.03332088E-01
  4.12940712E-01  4.25632663E-01  4.43489064E-01  4.56112624E-01  4.80485671E-01
  4.86422021E-01  4.96038004E-01  5.25847113E-01  5.29610595E-01  5.33380152E-01
  5.59711577E-01  5.62166633E-01  5.72763913E-01  5.81143189E-01  5.99631964E-01
  6.24647945E-01  6.37567872E-01  6.39627184E-01  6.63744270E-01  6.90547765E-01
  7.19304130E-01  7.33000084E-01  7.81719187E-01  7.85223545E-01  7.95184499E-01
  8.14831919E-01  8.37965784E-01  8.65640081E-01  8.72396221E-01  8.76876969E-01
  9.20934929E-01  9.42634715E-01  9.83393896E-01  1.02399762E+00  1.04491090E+00
  1.07239321E+00  1.12224471E+00  1.13993204E+00  1.18680562E+00  1.18748013E+00
  1.23866039E+00  1.27001065E+00  1.27401691E+00  1.30775106E+00  1.31806362E+00
  1.39196079E+00  1.39250015E+00  1.43131995E+00  1.43492734E+00  1.47387298E+00
  1.49561684E+00  1.49722312E+00  1.54351518E+00  1.58652223E+00  1.58961067E+00
  1.59655468E+00  1.66270885E+00  1.66551600E+00  1.68447082E+00  1.69725497E+00
  1.72391111E+00  1.73856113E+00  1.74682614E+00  1.76965553E+00  1.79982592E+00
  1.80121759E+00  1.83027816E+00  1.85435800E+00  1.88712421E+00  1.88962225E+00
  1.90502212E+00  1.92135667E+00  1.92559237E+00  1.97707312E+00  1.98909931E+00
  2.02977309E+00  2.07510535E+00  2.09752321E+00  2.11807911E+00  2.14423730E+00
  2.18830166E+00  2.18853741E+00  2.28821747E+00  2.28866558E+00  2.28949550E+00
  2.34381030E+00  2.36024201E+00  2.41357372E+00  2.44495134E+00  2.48525531E+00
  2.50088714E+00  2.50570768E+00  2.52368573E+00  2.54119889E+00  2.57804019E+00
  2.59019396E+00  2.60586530E+00  2.61220246E+00  2.64640910E+00  2.65613321E+00
  2.70129503E+00  2.70218516E+00  2.74532186E+00  2.76623955E+00  2.78137603E+00
  2.83979211E+00  2.84676763E+00  2.88153071E+00  2.90365597E+00  2.94587496E+00
  2.95461058E+00  2.95886726E+00  3.01470570E+00  3.15958476E+00  3.19144472E+00
  3.34120808E+00  3.43701078E+00  3.48854073E+00  3.60885270E+00  3.61479279E+00
  3.82277254E+00  3.84679972E+00  3.92126491E+00  3.97797020E+00  4.16451838E+00
  4.65011611E+00  4.65714542E+00  4.85206487E+00  4.97027270E+00  1.46429214E+01
  1.47532512E+01  2.36043819E+01  2.37473691E+01  2.42036312E+01  2.42648583E+01
  3.55553852E+01  3.55900440E+01
Alpha MO coefficients                      R   N=       36864
  9.87225659E-06 -1.42887678E-05  2.33862764E-05  2.53923946E-04  1.33788126E-04
  3.53615962E-04 -3.23395400E-04 -7.07609477E-04 -3.32877072E-04  2.57489593E-03
 -2.00657200E-03  4.37478498E-03  2.58430001E-03 -1.79427937E-04  9.39907986E-05
 -3.04205099E-04  5.15175768E-04  3.18909285E-04 -1.81428031E-06  4.18256942E-06
  9.04244382E-05  8.40364519E-05  1.57625988E-05  9.56634751E-05 -6.40100826E-04
 -6.28813987E-04 -1.56516526E-04 -4.43120819E-03  5.44536205E-03 -1.22761894E-03
 -1.72348660E-03 -1.16070056E-05 -1.92143936E-04 -1.06333671E-04  2.05236012E-04
 -3.38839051E-04 -2.12218002E-04  7.11550837E-04  5.20070468E-04  2.06875074E-05
 -2.14761608E-04 -1.20533997E-04 -3.60778165E-05 -1.51224839E-03 -3.89805295E-05
  9.34294638E-04  3.11387028E-05  7.95023418E-04 -9.82148577E-05 -7.24821687E-04
  1.01731790E-03 -3.95583290E-05  3.30029146E-04  1.61175665E-04  9.82148584E-05
  7.24821692E-04 -1.01731791E-03 -3.95583294E-05 -3.30029148E-04  1.61175667E-04