Title Card Required                                                     
SP        UB3LYP                                                      6-311G(d,p)         
Number of atoms                            I               16
Info1-9                                    I   N=           9
          24          23           0           0           0         110
           1          18        -502
Full Title                                 C   N=           2
Title Card Required     
Route                                      C   N=           4
#p ub3lyp/6-311g(d,p) nosymm density=current    
Charge                                     I                0
Multiplicity                               I                3
Number of electrons                        I               56
Number of alpha electrons                  I               29
Number of beta electrons                   I               27
Number of basis functions                  I              192
Number of independent functions            I              192
Number of point charges in /Mol/           I                0
Number of translation vectors              I                0
Atomic numbers                             I   N=          16
           6           6           1           1           1           1
           1           1           1           1           5           7
           6           6           5           7
Nuclear charges                            R   N=          16
  6.00000000E+00  6.00000000E+00  1.00000000E+00  1.00000000E+00  1.00000000E+00
  1.00000000E+00  1.00000000E+00  1.00000000E+00  1.00000000E+00  1.00000000E+00
  5.00000000E+00  7.00000000E+00  6.00000000E+00  6.00000000E+00  5.00000000E+00
  7.00000000E+00
Current cartesian coordinates              R   N=          48
  3.32958594E+00 -1.26010528E+00  0.00000000E+00  1.30643003E+00 -3.02614505E+00
  0.00000000E+00  5.18460913E+00 -2.13536973E+00  0.00000000E+00  5.20756175E+00
  1.90270665E+00  0.00000000E+00  2.61803035E+00  5.32426934E+00  0.00000000E+00
 -2.61803035E+00  5.32426934E+00  0.00000000E+00 -5.20756175E+00  1.90270665E+00
  0.00000000E+00 -5.18460913E+00 -2.13536973E+00  0.00000000E+00 -2.06600356E+00
 -4.93363272E+00  0.00000000E+00  2.06600356E+00 -4.93363272E+00  0.00000000E+00
  1.54715657E+00  3.32553625E+00  0.00000000E+00  3.40003115E+00  1.27597709E+00
  0.00000000E+00 -1.30643003E+00 -3.02614505E+00  0.00000000E+00 -3.32958594E+00
 -1.26010528E+00  0.00000000E+00 -1.54715657E+00  3.32553625E+00  0.00000000E+00
 -3.40003115E+00  1.27597709E+00  0.00000000E+00
Number of symbols in /Mol/                 I                0
Force Field                                I                0
Atom Types                                 C   N=          16
                                                            
                                                            
                                                            
            
Int Atom Types                             I   N=          16
           0           0           0           0           0           0
           0           0           0           0           0           0
           0           0           0           0
MM charges                                 R   N=          16
  0.00000000E+00  0.00000000E+00  0.00000000E+00  0.00000000E+00  0.00000000E+00
  0.00000000E+00  0.00000000E+00  0.00000000E+00  0.00000000E+00  0.00000000E+00
  0.00000000E+00  0.00000000E+00  0.00000000E+00  0.00000000E+00  0.00000000E+00
  0.00000000E+00
Integer atomic weights                     I   N=          16
          12          12           1           1           1           1
           1           1           1           1          11          14
          12          12          11          14
Real atomic weights                        R   N=          16
  1.20000000E+01  1.20000000E+01  1.00782504E+00  1.00782504E+00  1.00782504E+00
  1.00782504E+00  1.00782504E+00  1.00782504E+00  1.00782504E+00  1.00782504E+00
  1.10093053E+01  1.40030740E+01  1.20000000E+01  1.20000000E+01  1.10093053E+01
  1.40030740E+01
Atom fragment info                         I   N=          16
           0           0           0           0           0           0
           0           0           0           0           0           0
           0           0           0           0
Atom residue num                           I   N=          16
           0           0           0           0           0           0
           0           0           0           0           0           0
           0           0           0           0
Nuclear spins                              I   N=          16
           0           0           1           1           1           1
           1           1           1           1           3           2
           0           0           3           2
Nuclear ZEff                               R   N=          16
 -3.60000000E+00 -3.60000000E+00 -1.00000000E+00 -1.00000000E+00 -1.00000000E+00
 -1.00000000E+00 -1.00000000E+00 -1.00000000E+00 -1.00000000E+00 -1.00000000E+00
 -2.75000000E+00 -4.55000000E+00 -3.60000000E+00 -3.60000000E+00 -2.75000000E+00
 -4.55000000E+00
Nuclear ZNuc                               R   N=          16
  6.00000000E+00  6.00000000E+00  1.00000000E+00  1.00000000E+00  1.00000000E+00
  1.00000000E+00  1.00000000E+00  1.00000000E+00  1.00000000E+00  1.00000000E+00
  5.00000000E+00  7.00000000E+00  6.00000000E+00  6.00000000E+00  5.00000000E+00
  7.00000000E+00
Nuclear QMom                               R   N=          16
  0.00000000E+00  0.00000000E+00  0.00000000E+00  0.00000000E+00  0.00000000E+00
  0.00000000E+00  0.00000000E+00  0.00000000E+00  0.00000000E+00  0.00000000E+00
  4.05900000E+00  2.04400000E+00  0.00000000E+00  0.00000000E+00  4.05900000E+00
  2.04400000E+00
Nuclear GFac                               R   N=          16
  0.00000000E+00  0.00000000E+00  2.79284600E+00  2.79284600E+00  2.79284600E+00
  2.79284600E+00  2.79284600E+00  2.79284600E+00  2.79284600E+00  2.79284600E+00
  2.68863700E+00  4.03761000E-01  0.00000000E+00  0.00000000E+00  2.68863700E+00
  4.03761000E-01
MicOpt                                     I   N=          16
          -1          -1          -1          -1          -1          -1
          -1          -1          -1          -1          -1          -1
          -1          -1          -1          -1
Number of residues                         I                0
Number of secondary structures             I                0
Number of contracted shells                I               72
Number of primitive shells                 I              144
Pure/Cartesian d shells                    I                0
Pure/Cartesian f shells                    I                0
Highest angular momentum                   I                2
Largest degree of contraction              I                6
Shell types                                I   N=          72
           0          -1          -1          -1          -2           0
          -1          -1          -1          -2           0           0
           0           1           0           0           0           1
           0           0           0           1           0           0
           0           1           0           0           0           1
           0           0           0           1           0           0
           0           1           0           0           0           1
           0          -1          -1          -1          -2           0
          -1          -1          -1          -2           0          -1
          -1          -1          -2           0          -1          -1
          -1          -2           0          -1          -1          -1
          -2           0          -1          -1          -1          -2
Number of primitives per shell             I   N=          72
           6           3           1           1           1           6
           3           1           1           1           3           1
           1           1           3           1           1           1
           3           1           1           1           3           1
           1           1           3           1           1           1
           3           1           1           1           3           1
           1           1           3           1           1           1
           6           3           1           1           1           6
           3           1           1           1           6           3
           1           1           1           6           3           1
           1           1           6           3           1           1
           1           6           3           1           1           1
Shell to atom map                          I   N=          72
           1           1           1           1           1           2
           2           2           2           2           3           3
           3           3           4           4           4           4
           5           5           5           5           6           6
           6           6           7           7           7           7
           8           8           8           8           9           9
           9           9          10          10          10          10
          11          11          11          11          11          12
          12          12          12          12          13          13
          13          13          13          14          14          14
          14          14          15          15          15          15
          15          16          16          16          16          16
Primitive exponents                        R   N=         144
  4.56324000E+03  6.82024000E+02  1.54973000E+02  4.44553000E+01  1.30290000E+01
  1.82773000E+00  2.09642000E+01  4.80331000E+00  1.45933000E+00  4.83456000E-01
  1.45585000E-01  6.26000000E-01  4.56324000E+03  6.82024000E+02  1.54973000E+02
  4.44553000E+01  1.30290000E+01  1.82773000E+00  2.09642000E+01  4.80331000E+00
  1.45933000E+00  4.83456000E-01  1.45585000E-01  6.26000000E-01  3.38650000E+01
  5.09479000E+00  1.15879000E+00  3.25840000E-01  1.02741000E-01  7.50000000E-01
  3.38650000E+01  5.09479000E+00  1.15879000E+00  3.25840000E-01  1.02741000E-01
  7.50000000E-01  3.38650000E+01  5.09479000E+00  1.15879000E+00  3.25840000E-01
  1.02741000E-01  7.50000000E-01  3.38650000E+01  5.09479000E+00  1.15879000E+00
  3.25840000E-01  1.02741000E-01  7.50000000E-01  3.38650000E+01  5.09479000E+00
  1.15879000E+00  3.25840000E-01  1.02741000E-01  7.50000000E-01  3.38650000E+01
  5.09479000E+00  1.15879000E+00  3.25840000E-01  1.02741000E-01  7.50000000E-01
  3.38650000E+01  5.09479000E+00  1.15879000E+00  3.25840000E-01  1.02741000E-01
  7.50000000E-01  3.38650000E+01  5.09479000E+00  1.15879000E+00  3.25840000E-01
  1.02741000E-01  7.50000000E-01  2.85889000E+03  4.28140000E+02  9.75282000E+01
  2.79693000E+01  8.21577000E+00  1.11278000E+00  1.32415000E+01  3.00166000E+00
  9.12856000E-01  3.15454000E-01  9.88563000E-02  4.01000000E-01  6.29348000E+03
  9.49044000E+02  2.18776000E+02  6.36916000E+01  1.88282000E+01  2.72023000E+00
  3.06331000E+01  7.02614000E+00  2.11205000E+00  6.84009000E-01  2.00878000E-01
  9.13000000E-01  4.56324000E+03  6.82024000E+02  1.54973000E+02  4.44553000E+01
  1.30290000E+01  1.82773000E+00  2.09642000E+01  4.80331000E+00  1.45933000E+00
  4.83456000E-01  1.45585000E-01  6.26000000E-01  4.56324000E+03  6.82024000E+02
  1.54973000E+02  4.44553000E+01  1.30290000E+01  1.82773000E+00  2.09642000E+01
  4.80331000E+00  1.45933000E+00  4.83456000E-01  1.45585000E-01  6.26000000E-01
  2.85889000E+03  4.28140000E+02  9.75282000E+01  2.79693000E+01  8.21577000E+00
  1.11278000E+00  1.32415000E+01  3.00166000E+00  9.12856000E-01  3.15454000E-01
  9.88563000E-02  4.01000000E-01  6.29348000E+03  9.49044000E+02  2.18776000E+02
  6.36916000E+01  1.88282000E+01  2.72023000E+00  3.06331000E+01  7.02614000E+00
  2.11205000E+00  6.84009000E-01  2.00878000E-01  9.13000000E-01
Contraction coefficients                   R   N=         144
  1.96665025E-03  1.52306019E-02  7.61269097E-02  2.60801033E-01  6.16462078E-01
  2.21006028E-01  1.14660081E-01  9.19999648E-01 -3.03068213E-03  1.00000000E+00
  1.00000000E+00  1.00000000E+00  1.96665025E-03  1.52306019E-02  7.61269097E-02
  2.60801033E-01  6.16462078E-01  2.21006028E-01  1.14660081E-01  9.19999648E-01
 -3.03068213E-03  1.00000000E+00  1.00000000E+00  1.00000000E+00  2.54938145E-02
  1.90373109E-01  8.52161486E-01  1.00000000E+00  1.00000000E+00  1.00000000E+00
  2.54938145E-02  1.90373109E-01  8.52161486E-01  1.00000000E+00  1.00000000E+00
  1.00000000E+00  2.54938145E-02  1.90373109E-01  8.52161486E-01  1.00000000E+00
  1.00000000E+00  1.00000000E+00  2.54938145E-02  1.90373109E-01  8.52161486E-01
  1.00000000E+00  1.00000000E+00  1.00000000E+00  2.54938145E-02  1.90373109E-01
  8.52161486E-01  1.00000000E+00  1.00000000E+00  1.00000000E+00  2.54938145E-02
  1.90373109E-01  8.52161486E-01  1.00000000E+00  1.00000000E+00  1.00000000E+00
  2.54938145E-02  1.90373109E-01  8.52161486E-01  1.00000000E+00  1.00000000E+00
  1.00000000E+00  2.54938145E-02  1.90373109E-01  8.52161486E-01  1.00000000E+00
  1.00000000E+00  1.00000000E+00  2.15374907E-03  1.65822928E-02  8.21869644E-02
  2.76617880E-01  6.29315727E-01  1.73769925E-01  1.17442942E-01  9.18001549E-01
 -2.65104870E-03  1.00000000E+00  1.00000000E+00  1.00000000E+00  1.96978815E-03
  1.49612859E-02  7.35005308E-02  2.48936766E-01  6.02459433E-01  2.56201759E-01
  1.11906080E-01  9.21666655E-01 -2.56919183E-03  1.00000000E+00  1.00000000E+00
  1.00000000E+00  1.96665025E-03  1.52306019E-02  7.61269097E-02  2.60801033E-01
  6.16462078E-01  2.21006028E-01  1.14660081E-01  9.19999648E-01 -3.03068213E-03
  1.00000000E+00  1.00000000E+00  1.00000000E+00  1.96665025E-03  1.52306019E-02
  7.61269097E-02  2.60801033E-01  6.16462078E-01  2.21006028E-01  1.14660081E-01
  9.19999648E-01 -3.03068213E-03  1.00000000E+00  1.00000000E+00  1.00000000E+00
  2.15374907E-03  1.65822928E-02  8.21869644E-02  2.76617880E-01  6.29315727E-01
  1.73769925E-01  1.17442942E-01  9.18001549E-01 -2.65104870E-03  1.00000000E+00
  1.00000000E+00  1.00000000E+00  1.96978815E-03  1.49612859E-02  7.35005308E-02
  2.48936766E-01  6.02459433E-01  2.56201759E-01  1.11906080E-01  9.21666655E-01
 -2.56919183E-03  1.00000000E+00  1.00000000E+00  1.00000000E+00
P(S=P) Contraction coefficients            R   N=         144
  0.00000000E+00  0.00000000E+00  0.00000000E+00  0.00000000E+00  0.00000000E+00
  0.00000000E+00  4.02486927E-02  2.37593957E-01  8.15853851E-01  1.00000000E+00
  1.00000000E+00  0.00000000E+00  0.00000000E+00  0.00000000E+00  0.00000000E+00
  0.00000000E+00  0.00000000E+00  0.00000000E+00  4.02486927E-02  2.37593957E-01
  8.15853851E-01  1.00000000E+00  1.00000000E+00  0.00000000E+00  0.00000000E+00
  0.00000000E+00  0.00000000E+00  0.00000000E+00  0.00000000E+00  0.00000000E+00
  0.00000000E+00  0.00000000E+00  0.00000000E+00  0.00000000E+00  0.00000000E+00
  0.00000000E+00  0.00000000E+00  0.00000000E+00  0.00000000E+00  0.00000000E+00
  0.00000000E+00  0.00000000E+00  0.00000000E+00  0.00000000E+00  0.00000000E+00
  0.00000000E+00  0.00000000E+00  0.00000000E+00  0.00000000E+00  0.00000000E+00
  0.00000000E+00  0.00000000E+00  0.00000000E+00  0.00000000E+00  0.00000000E+00
  0.00000000E+00  0.00000000E+00  0.00000000E+00  0.00000000E+00  0.00000000E+00
  0.00000000E+00  0.00000000E+00  0.00000000E+00  0.00000000E+00  0.00000000E+00
  0.00000000E+00  0.00000000E+00  0.00000000E+00  0.00000000E+00  0.00000000E+00
  0.00000000E+00  0.00000000E+00  0.00000000E+00  0.00000000E+00  0.00000000E+00
  0.00000000E+00  0.00000000E+00  0.00000000E+00  4.18099989E-02  2.36574994E-01
  8.16213978E-01  1.00000000E+00  1.00000000E+00  0.00000000E+00  0.00000000E+00
  0.00000000E+00  0.00000000E+00  0.00000000E+00  0.00000000E+00  0.00000000E+00
  3.83119186E-02  2.37403116E-01  8.17592398E-01  1.00000000E+00  1.00000000E+00
  0.00000000E+00  0.00000000E+00  0.00000000E+00  0.00000000E+00  0.00000000E+00
  0.00000000E+00  0.00000000E+00  4.02486927E-02  2.37593957E-01  8.15853851E-01
  1.00000000E+00  1.00000000E+00  0.00000000E+00  0.00000000E+00  0.00000000E+00
  0.00000000E+00  0.00000000E+00  0.00000000E+00  0.00000000E+00  4.02486927E-02
  2.37593957E-01  8.15853851E-01  1.00000000E+00  1.00000000E+00  0.00000000E+00
  0.00000000E+00  0.00000000E+00  0.00000000E+00  0.00000000E+00  0.00000000E+00
  0.00000000E+00  4.18099989E-02  2.36574994E-01  8.16213978E-01  1.00000000E+00
  1.00000000E+00  0.00000000E+00  0.00000000E+00  0.00000000E+00  0.00000000E+00
  0.00000000E+00  0.00000000E+00  0.00000000E+00  3.83119186E-02  2.37403116E-01
  8.17592398E-01  1.00000000E+00  1.00000000E+00  0.00000000E+00
Coordinates of each shell                  R   N=         216
  3.32958594E+00 -1.26010528E+00  0.00000000E+00  3.32958594E+00 -1.26010528E+00
  0.00000000E+00  3.32958594E+00 -1.26010528E+00  0.00000000E+00  3.32958594E+00
 -1.26010528E+00  0.00000000E+00  3.32958594E+00 -1.26010528E+00  0.00000000E+00
  1.30643003E+00 -3.02614505E+00  0.00000000E+00  1.30643003E+00 -3.02614505E+00
  0.00000000E+00  1.30643003E+00 -3.02614505E+00  0.00000000E+00  1.30643003E+00
 -3.02614505E+00  0.00000000E+00  1.30643003E+00 -3.02614505E+00  0.00000000E+00
  5.18460913E+00 -2.13536973E+00  0.00000000E+00  5.18460913E+00 -2.13536973E+00
  0.00000000E+00  5.18460913E+00 -2.13536973E+00  0.00000000E+00  5.18460913E+00
 -2.13536973E+00  0.00000000E+00  5.20756175E+00  1.90270665E+00  0.00000000E+00
  5.20756175E+00  1.90270665E+00  0.00000000E+00  5.20756175E+00  1.90270665E+00
  0.00000000E+00  5.20756175E+00  1.90270665E+00  0.00000000E+00  2.61803035E+00
  5.32426934E+00  0.00000000E+00  2.61803035E+00  5.32426934E+00  0.00000000E+00
  2.61803035E+00  5.32426934E+00  0.00000000E+00  2.61803035E+00  5.32426934E+00
  0.00000000E+00 -2.61803035E+00  5.32426934E+00  0.00000000E+00 -2.61803035E+00
  5.32426934E+00  0.00000000E+00 -2.61803035E+00  5.32426934E+00  0.00000000E+00
 -2.61803035E+00  5.32426934E+00  0.00000000E+00 -5.20756175E+00  1.90270665E+00
  0.00000000E+00 -5.20756175E+00  1.90270665E+00  0.00000000E+00 -5.20756175E+00
  1.90270665E+00  0.00000000E+00 -5.20756175E+00  1.90270665E+00  0.00000000E+00
 -5.18460913E+00 -2.13536973E+00  0.00000000E+00 -5.18460913E+00 -2.13536973E+00
  0.00000000E+00 -5.18460913E+00 -2.13536973E+00  0.00000000E+00 -5.18460913E+00
 -2.13536973E+00  0.00000000E+00 -2.06600356E+00 -4.93363272E+00  0.00000000E+00
 -2.06600356E+00 -4.93363272E+00  0.00000000E+00 -2.06600356E+00 -4.93363272E+00
  0.00000000E+00 -2.06600356E+00 -4.93363272E+00  0.00000000E+00  2.06600356E+00
 -4.93363272E+00  0.00000000E+00  2.06600356E+00 -4.93363272E+00  0.00000000E+00
  2.06600356E+00 -4.93363272E+00  0.00000000E+00  2.06600356E+00 -4.93363272E+00
  0.00000000E+00  1.54715657E+00  3.32553625E+00  0.00000000E+00  1.54715657E+00
  3.32553625E+00  0.00000000E+00  1.54715657E+00  3.32553625E+00  0.00000000E+00
  1.54715657E+00  3.32553625E+00  0.00000000E+00  1.54715657E+00  3.32553625E+00
  0.00000000E+00  3.40003115E+00  1.27597709E+00  0.00000000E+00  3.40003115E+00
  1.27597709E+00  0.00000000E+00  3.40003115E+00  1.27597709E+00  0.00000000E+00
  3.40003115E+00  1.27597709E+00  0.00000000E+00  3.40003115E+00  1.27597709E+00
  0.00000000E+00 -1.30643003E+00 -3.02614505E+00  0.00000000E+00 -1.30643003E+00
 -3.02614505E+00  0.00000000E+00 -1.30643003E+00 -3.02614505E+00  0.00000000E+00
 -1.30643003E+00 -3.02614505E+00  0.00000000E+00 -1.30643003E+00 -3.02614505E+00
  0.00000000E+00 -3.32958594E+00 -1.26010528E+00  0.00000000E+00 -3.32958594E+00
 -1.26010528E+00  0.00000000E+00 -3.32958594E+00 -1.26010528E+00  0.00000000E+00
 -3.32958594E+00 -1.26010528E+00  0.00000000E+00 -3.32958594E+00 -1.26010528E+00
  0.00000000E+00 -1.54715657E+00  3.32553625E+00  0.00000000E+00 -1.54715657E+00
  3.32553625E+00  0.00000000E+00 -1.54715657E+00  3.32553625E+00  0.00000000E+00
 -1.54715657E+00  3.32553625E+00  0.00000000E+00 -1.54715657E+00  3.32553625E+00
  0.00000000E+00 -3.40003115E+00  1.27597709E+00  0.00000000E+00 -3.40003115E+00
  1.27597709E+00  0.00000000E+00 -3.40003115E+00  1.27597709E+00  0.00000000E+00
 -3.40003115E+00  1.27597709E+00  0.00000000E+00 -3.40003115E+00  1.27597709E+00
  0.00000000E+00
Num ILSW                                   I              100
ILSW                                       I   N=         100
           1           0           0           0           2           0
           0           0           0           0         402          -1
           5           0           0           0           0           0
           0           0           0           0           0           0
           1           1           0           0           0           0
           0           0      100000           0          -1           0
           0           0           0           0           0           0
           0           0           0           1           0           0
           0 -2000000000           1           0           0           0
           0           0           4          52           0           0
           0           0           5           0           0           0
           0           0           0          16           0           1
           0           0           0           0           0           0
           0           0           0           0           0           0
           0           0           0           0           0           0
           0           0           0           0           0           0
           0           0           0           0
Num RLSW                                   I               52
RLSW                                       R   N=          52
  8.00000000E-01  7.20000000E-01  1.00000000E+00  8.10000000E-01  2.00000000E-01
  0.00000000E+00  0.00000000E+00  1.00000000E+00  0.00000000E+00  0.00000000E+00
  0.00000000E+00  0.00000000E+00  1.00000000E+00  0.00000000E+00  0.00000000E+00
  0.00000000E+00  0.00000000E+00  1.00000000E+00  0.00000000E+00  0.00000000E+00
  0.00000000E+00  0.00000000E+00  1.00000000E+00  0.00000000E+00  0.00000000E+00
  0.00000000E+00  0.00000000E+00  1.00000000E+00  0.00000000E+00  0.00000000E+00
  0.00000000E+00  0.00000000E+00  1.00000000E+00  0.00000000E+00  0.00000000E+00
  0.00000000E+00  0.00000000E+00  0.00000000E+00  1.00000000E+00  1.00000000E+00
  0.00000000E+00  1.00000000E+00  0.00000000E+00  0.00000000E+00  0.00000000E+00
  0.00000000E+00  0.00000000E+00  0.00000000E+00  0.00000000E+00  0.00000000E+00
  0.00000000E+00  0.00000000E+00
MxBond                                     I                3
NBond                                      I   N=          16
           3           3           1           1           1           1
           1           1           1           1           3           3
           3           3           3           3
IBond                                      I   N=          48
           2           3          12           1          10          13
           1           0           0          12           0           0
          11           0           0          15           0           0
          16           0           0          14           0           0
          13           0           0           2           0           0
           5          12          15           1           4          11
           2           9          14           8          13          16
           6          11          16           7          14          15
RBond                                      R   N=          48
  1.50000000E+00  1.00000000E+00  1.50000000E+00  1.50000000E+00  1.00000000E+00
  1.50000000E+00  1.00000000E+00  0.00000000E+00  0.00000000E+00  1.00000000E+00
  0.00000000E+00  0.00000000E+00  1.00000000E+00  0.00000000E+00  0.00000000E+00
  1.00000000E+00  0.00000000E+00  0.00000000E+00  1.00000000E+00  0.00000000E+00
  0.00000000E+00  1.00000000E+00  0.00000000E+00  0.00000000E+00  1.00000000E+00
  0.00000000E+00  0.00000000E+00  1.00000000E+00  0.00000000E+00  0.00000000E+00
  1.00000000E+00  1.00000000E+00  1.00000000E+00  1.50000000E+00  1.00000000E+00
  1.00000000E+00  1.50000000E+00  1.00000000E+00  1.50000000E+00  1.00000000E+00
  1.50000000E+00  1.50000000E+00  1.00000000E+00  1.00000000E+00  1.00000000E+00
  1.00000000E+00  1.50000000E+00  1.00000000E+00
Virial Ratio                               R      2.004329144938941E+00
SCF Energy                                 R     -3.164960645517357E+02
Total Energy                               R     -3.164960645517357E+02
S**2                                       R      2.005878489026177E+00
S**2 after annihilation                    R      2.000019337262714E+00
RMS Density                                R      8.562304313645569E-09
Job Status                                 I                1
Nuclear derivative order                   I                0
External E-field                           R   N=          35
  0.00000000E+00  0.00000000E+00  0.00000000E+00  0.00000000E+00  0.00000000E+00
  0.00000000E+00  0.00000000E+00  0.00000000E+00  0.00000000E+00  0.00000000E+00
  0.00000000E+00  0.00000000E+00  0.00000000E+00  0.00000000E+00  0.00000000E+00
  0.00000000E+00  0.00000000E+00  0.00000000E+00  0.00000000E+00  0.00000000E+00
  0.00000000E+00  0.00000000E+00  0.00000000E+00  0.00000000E+00  0.00000000E+00
  0.00000000E+00  0.00000000E+00  0.00000000E+00  0.00000000E+00  0.00000000E+00
  0.00000000E+00  0.00000000E+00  0.00000000E+00  0.00000000E+00  0.00000000E+00
IOpCl                                      I                1
IROHF                                      I                0
Alpha Orbital Energies                     R   N=         192
 -1.43475363E+01 -1.43475270E+01 -1.02308610E+01 -1.02308518E+01 -1.01921063E+01
 -1.01915476E+01 -6.69562193E+00 -6.69511187E+00 -9.42454323E-01 -9.37775136E-01
 -8.05334838E-01 -7.30625459E-01 -6.53340166E-01 -5.80066364E-01 -5.62552310E-01
 -5.34696585E-01 -5.34504095E-01 -4.64129260E-01 -4.35573770E-01 -4.22610636E-01
 -4.07477620E-01 -3.85714869E-01 -3.78524189E-01 -3.69517324E-01 -3.13870090E-01
 -3.07656154E-01 -2.70829762E-01 -2.04303391E-01 -1.48911685E-01 -1.57195243E-02
  1.25024219E-02  3.01908337E-02  4.63052736E-02  5.70180132E-02  9.22458586E-02
  1.03199874E-01  1.23273988E-01  1.38699279E-01  1.38859188E-01  1.69065733E-01
  1.80224904E-01  2.39484983E-01  2.53059270E-01  2.60761712E-01  2.62874440E-01
  2.72390134E-01  2.89480399E-01  2.93295603E-01  3.06247158E-01  3.28687326E-01
  3.37921163E-01  3.55985130E-01  3.57622473E-01  3.86160942E-01  3.86413899E-01
  4.12039549E-01  4.24269287E-01  4.38527740E-01  4.42470864E-01  4.43592057E-01
  4.81010656E-01  4.86001960E-01  5.02449492E-01  5.41100316E-01  5.53534005E-01
  5.64445042E-01  5.70856914E-01  5.94168612E-01  5.95362674E-01  6.17325777E-01
  6.32913440E-01  6.47275801E-01  6.88150143E-01  6.90366629E-01  7.14972669E-01
  7.42540737E-01  7.48010487E-01  7.51973794E-01  7.54302834E-01  8.09777561E-01
  8.10417879E-01  8.37663617E-01  8.43161645E-01  9.12213768E-01  9.41293871E-01
  9.52460476E-01  9.67695664E-01  9.80006360E-01  1.02329823E+00  1.04607544E+00
  1.04827642E+00  1.05966056E+00  1.10081153E+00  1.11021564E+00  1.13456224E+00
  1.15920390E+00  1.18623789E+00  1.23027359E+00  1.29300997E+00  1.31360351E+00
  1.33955001E+00  1.36346747E+00  1.41031040E+00  1.42094009E+00  1.46085332E+00
  1.48855745E+00  1.49123391E+00  1.55594785E+00  1.56039000E+00  1.58618490E+00
  1.60927509E+00  1.62965811E+00  1.64558677E+00  1.67492539E+00  1.68218721E+00
  1.74219721E+00  1.76102901E+00  1.76195950E+00  1.77300861E+00  1.78939413E+00
  1.79581260E+00  1.83737041E+00  1.85140093E+00  1.85325128E+00  1.89185617E+00
  1.90191610E+00  1.91725984E+00  1.92325294E+00  1.94124122E+00  1.96862118E+00
  2.01380642E+00  2.01620589E+00  2.07871651E+00  2.07884876E+00  2.10605594E+00
  2.11806593E+00  2.19418808E+00  2.28253670E+00  2.28541076E+00  2.31085157E+00
  2.33110541E+00  2.37064545E+00  2.40302784E+00  2.44173838E+00  2.45652204E+00
  2.46720690E+00  2.51960844E+00  2.52231107E+00  2.56009720E+00  2.57237591E+00
  2.61403304E+00  2.62030346E+00  2.63884862E+00  2.65051416E+00  2.66975593E+00
  2.68963812E+00  2.73455440E+00  2.74934595E+00  2.75152487E+00  2.78653497E+00
  2.80636895E+00  2.87777589E+00  2.88463727E+00  2.88635975E+00  2.92916524E+00
  2.96987155E+00  3.00609819E+00  3.10679530E+00  3.18099110E+00  3.18621659E+00
  3.31151128E+00  3.39156388E+00  3.39840529E+00  3.60834316E+00  3.64361324E+00
  3.74573632E+00  3.80291966E+00  3.94091433E+00  3.96189081E+00  4.30240281E+00
  4.54332978E+00  4.70914182E+00  4.88298417E+00  5.09158261E+00  1.45421718E+01
  1.48744887E+01  2.36174400E+01  2.38733703E+01  2.39536104E+01  2.42152961E+01
  3.55458889E+01  3.56029956E+01
Beta Orbital Energies                      R   N=         192
 -1.43457661E+01 -1.43457577E+01 -1.02246404E+01 -1.02246326E+01 -1.01895980E+01
 -1.01890288E+01 -6.69256637E+00 -6.69208466E+00 -9.34240677E-01 -9.29816880E-01
 -7.94390014E-01 -7.14791612E-01 -6.41377631E-01 -5.72400182E-01 -5.57942285E-01
 -5.31384785E-01 -5.26825488E-01 -4.59616239E-01 -4.29273281E-01 -4.15197257E-01
 -3.76684456E-01 -3.74036820E-01 -3.65388040E-01 -3.55791728E-01 -3.10614407E-01
 -2.77923904E-01 -2.64151433E-01 -1.23996030E-01 -6.75108522E-02  1.38470334E-02
  2.88467092E-02  3.12606187E-02  5.77275284E-02  8.29801931E-02  9.33296730E-02
  1.06135267E-01  1.41877722E-01  1.41992723E-01  1.53447155E-01  1.73623289E-01
  1.84826374E-01  2.44545780E-01  2.62311193E-01  2.64109776E-01  2.66457987E-01
  2.80925419E-01  2.97396757E-01  3.10912152E-01  3.14552318E-01  3.41295426E-01