Title Card Required                                                     
SP        UB3LYP                                                      6-311G(d,p)         
Number of atoms                            I               16
Info1-9                                    I   N=           9
          23          23           0           0           0         110
           1          18        -502
Full Title                                 C   N=           2
Title Card Required     
Route                                      C   N=           4
#p ub3lyp/6-311g(d,p) nosymm density=current    
Charge                                     I                0
Multiplicity                               I                3
Number of electrons                        I               56
Number of alpha electrons                  I               29
Number of beta electrons                   I               27
Number of basis functions                  I              192
Number of independent functions            I              192
Number of point charges in /Mol/           I                0
Number of translation vectors              I                0
Atomic numbers                             I   N=          16
           6           6           6           6           1           1
           1           1           1           1           1           1
           5           7           7           5
Nuclear charges                            R   N=          16
  6.00000000E+00  6.00000000E+00  6.00000000E+00  6.00000000E+00  1.00000000E+00
  1.00000000E+00  1.00000000E+00  1.00000000E+00  1.00000000E+00  1.00000000E+00
  1.00000000E+00  1.00000000E+00  5.00000000E+00  7.00000000E+00  7.00000000E+00
  5.00000000E+00
Current cartesian coordinates              R   N=          48
  1.32872880E+00  3.45947437E+00  0.00000000E+00  1.33017444E+00 -3.15399637E+00
  0.00000000E+00 -1.33017444E+00 -3.15399637E+00  0.00000000E+00 -1.32872880E+00
  3.45947437E+00  0.00000000E+00  2.09816859E+00 -5.05506085E+00  0.00000000E+00
  4.83731715E+00 -2.12521624E+00  0.00000000E+00  5.50256878E+00  2.04089288E+00
  0.00000000E+00  2.15588082E+00  5.34916648E+00  0.00000000E+00 -2.15588082E+00
  5.34916648E+00  0.00000000E+00 -5.50256878E+00  2.04089288E+00  0.00000000E+00
 -4.83731715E+00 -2.12521624E+00  0.00000000E+00 -2.09816859E+00 -5.05506085E+00
  0.00000000E+00  3.31367066E+00  1.46533332E+00  0.00000000E+00  3.09351001E+00
 -1.33847412E+00  0.00000000E+00 -3.09351001E+00 -1.33847412E+00  0.00000000E+00
 -3.31367066E+00  1.46533332E+00  0.00000000E+00
Number of symbols in /Mol/                 I                0
Force Field                                I                0
Atom Types                                 C   N=          16
                                                            
                                                            
                                                            
            
Int Atom Types                             I   N=          16
           0           0           0           0           0           0
           0           0           0           0           0           0
           0           0           0           0
MM charges                                 R   N=          16
  0.00000000E+00  0.00000000E+00  0.00000000E+00  0.00000000E+00  0.00000000E+00
  0.00000000E+00  0.00000000E+00  0.00000000E+00  0.00000000E+00  0.00000000E+00
  0.00000000E+00  0.00000000E+00  0.00000000E+00  0.00000000E+00  0.00000000E+00
  0.00000000E+00
Integer atomic weights                     I   N=          16
          12          12          12          12           1           1
           1           1           1           1           1           1
          11          14          14          11
Real atomic weights                        R   N=          16
  1.20000000E+01  1.20000000E+01  1.20000000E+01  1.20000000E+01  1.00782504E+00
  1.00782504E+00  1.00782504E+00  1.00782504E+00  1.00782504E+00  1.00782504E+00
  1.00782504E+00  1.00782504E+00  1.10093053E+01  1.40030740E+01  1.40030740E+01
  1.10093053E+01
Atom fragment info                         I   N=          16
           0           0           0           0           0           0
           0           0           0           0           0           0
           0           0           0           0
Atom residue num                           I   N=          16
           0           0           0           0           0           0
           0           0           0           0           0           0
           0           0           0           0
Nuclear spins                              I   N=          16
           0           0           0           0           1           1
           1           1           1           1           1           1
           3           2           2           3
Nuclear ZEff                               R   N=          16
 -3.60000000E+00 -3.60000000E+00 -3.60000000E+00 -3.60000000E+00 -1.00000000E+00
 -1.00000000E+00 -1.00000000E+00 -1.00000000E+00 -1.00000000E+00 -1.00000000E+00
 -1.00000000E+00 -1.00000000E+00 -2.75000000E+00 -4.55000000E+00 -4.55000000E+00
 -2.75000000E+00
Nuclear ZNuc                               R   N=          16
  6.00000000E+00  6.00000000E+00  6.00000000E+00  6.00000000E+00  1.00000000E+00
  1.00000000E+00  1.00000000E+00  1.00000000E+00  1.00000000E+00  1.00000000E+00
  1.00000000E+00  1.00000000E+00  5.00000000E+00  7.00000000E+00  7.00000000E+00
  5.00000000E+00
Nuclear QMom                               R   N=          16
  0.00000000E+00  0.00000000E+00  0.00000000E+00  0.00000000E+00  0.00000000E+00
  0.00000000E+00  0.00000000E+00  0.00000000E+00  0.00000000E+00  0.00000000E+00
  0.00000000E+00  0.00000000E+00  4.05900000E+00  2.04400000E+00  2.04400000E+00
  4.05900000E+00
Nuclear GFac                               R   N=          16
  0.00000000E+00  0.00000000E+00  0.00000000E+00  0.00000000E+00  2.79284600E+00
  2.79284600E+00  2.79284600E+00  2.79284600E+00  2.79284600E+00  2.79284600E+00
  2.79284600E+00  2.79284600E+00  2.68863700E+00  4.03761000E-01  4.03761000E-01
  2.68863700E+00
MicOpt                                     I   N=          16
          -1          -1          -1          -1          -1          -1
          -1          -1          -1          -1          -1          -1
          -1          -1          -1          -1
Number of residues                         I                0
Number of secondary structures             I                0
Number of contracted shells                I               72
Number of primitive shells                 I              144
Pure/Cartesian d shells                    I                0
Pure/Cartesian f shells                    I                0
Highest angular momentum                   I                2
Largest degree of contraction              I                6
Shell types                                I   N=          72
           0          -1          -1          -1          -2           0
          -1          -1          -1          -2           0          -1
          -1          -1          -2           0          -1          -1
          -1          -2           0           0           0           1
           0           0           0           1           0           0
           0           1           0           0           0           1
           0           0           0           1           0           0
           0           1           0           0           0           1
           0           0           0           1           0          -1
          -1          -1          -2           0          -1          -1
          -1          -2           0          -1          -1          -1
          -2           0          -1          -1          -1          -2
Number of primitives per shell             I   N=          72
           6           3           1           1           1           6
           3           1           1           1           6           3
           1           1           1           6           3           1
           1           1           3           1           1           1
           3           1           1           1           3           1
           1           1           3           1           1           1
           3           1           1           1           3           1
           1           1           3           1           1           1
           3           1           1           1           6           3
           1           1           1           6           3           1
           1           1           6           3           1           1
           1           6           3           1           1           1
Shell to atom map                          I   N=          72
           1           1           1           1           1           2
           2           2           2           2           3           3
           3           3           3           4           4           4
           4           4           5           5           5           5
           6           6           6           6           7           7
           7           7           8           8           8           8
           9           9           9           9          10          10
          10          10          11          11          11          11
          12          12          12          12          13          13
          13          13          13          14          14          14
          14          14          15          15          15          15
          15          16          16          16          16          16
Primitive exponents                        R   N=         144
  4.56324000E+03  6.82024000E+02  1.54973000E+02  4.44553000E+01  1.30290000E+01
  1.82773000E+00  2.09642000E+01  4.80331000E+00  1.45933000E+00  4.83456000E-01
  1.45585000E-01  6.26000000E-01  4.56324000E+03  6.82024000E+02  1.54973000E+02
  4.44553000E+01  1.30290000E+01  1.82773000E+00  2.09642000E+01  4.80331000E+00
  1.45933000E+00  4.83456000E-01  1.45585000E-01  6.26000000E-01  4.56324000E+03
  6.82024000E+02  1.54973000E+02  4.44553000E+01  1.30290000E+01  1.82773000E+00
  2.09642000E+01  4.80331000E+00  1.45933000E+00  4.83456000E-01  1.45585000E-01
  6.26000000E-01  4.56324000E+03  6.82024000E+02  1.54973000E+02  4.44553000E+01
  1.30290000E+01  1.82773000E+00  2.09642000E+01  4.80331000E+00  1.45933000E+00
  4.83456000E-01  1.45585000E-01  6.26000000E-01  3.38650000E+01  5.09479000E+00
  1.15879000E+00  3.25840000E-01  1.02741000E-01  7.50000000E-01  3.38650000E+01
  5.09479000E+00  1.15879000E+00  3.25840000E-01  1.02741000E-01  7.50000000E-01
  3.38650000E+01  5.09479000E+00  1.15879000E+00  3.25840000E-01  1.02741000E-01
  7.50000000E-01  3.38650000E+01  5.09479000E+00  1.15879000E+00  3.25840000E-01
  1.02741000E-01  7.50000000E-01  3.38650000E+01  5.09479000E+00  1.15879000E+00
  3.25840000E-01  1.02741000E-01  7.50000000E-01  3.38650000E+01  5.09479000E+00
  1.15879000E+00  3.25840000E-01  1.02741000E-01  7.50000000E-01  3.38650000E+01
  5.09479000E+00  1.15879000E+00  3.25840000E-01  1.02741000E-01  7.50000000E-01
  3.38650000E+01  5.09479000E+00  1.15879000E+00  3.25840000E-01  1.02741000E-01
  7.50000000E-01  2.85889000E+03  4.28140000E+02  9.75282000E+01  2.79693000E+01
  8.21577000E+00  1.11278000E+00  1.32415000E+01  3.00166000E+00  9.12856000E-01
  3.15454000E-01  9.88563000E-02  4.01000000E-01  6.29348000E+03  9.49044000E+02
  2.18776000E+02  6.36916000E+01  1.88282000E+01  2.72023000E+00  3.06331000E+01
  7.02614000E+00  2.11205000E+00  6.84009000E-01  2.00878000E-01  9.13000000E-01
  6.29348000E+03  9.49044000E+02  2.18776000E+02  6.36916000E+01  1.88282000E+01
  2.72023000E+00  3.06331000E+01  7.02614000E+00  2.11205000E+00  6.84009000E-01
  2.00878000E-01  9.13000000E-01  2.85889000E+03  4.28140000E+02  9.75282000E+01
  2.79693000E+01  8.21577000E+00  1.11278000E+00  1.32415000E+01  3.00166000E+00
  9.12856000E-01  3.15454000E-01  9.88563000E-02  4.01000000E-01
Contraction coefficients                   R   N=         144
  1.96665025E-03  1.52306019E-02  7.61269097E-02  2.60801033E-01  6.16462078E-01
  2.21006028E-01  1.14660081E-01  9.19999648E-01 -3.03068213E-03  1.00000000E+00
  1.00000000E+00  1.00000000E+00  1.96665025E-03  1.52306019E-02  7.61269097E-02
  2.60801033E-01  6.16462078E-01  2.21006028E-01  1.14660081E-01  9.19999648E-01
 -3.03068213E-03  1.00000000E+00  1.00000000E+00  1.00000000E+00  1.96665025E-03
  1.52306019E-02  7.61269097E-02  2.60801033E-01  6.16462078E-01  2.21006028E-01
  1.14660081E-01  9.19999648E-01 -3.03068213E-03  1.00000000E+00  1.00000000E+00
  1.00000000E+00  1.96665025E-03  1.52306019E-02  7.61269097E-02  2.60801033E-01
  6.16462078E-01  2.21006028E-01  1.14660081E-01  9.19999648E-01 -3.03068213E-03
  1.00000000E+00  1.00000000E+00  1.00000000E+00  2.54938145E-02  1.90373109E-01
  8.52161486E-01  1.00000000E+00  1.00000000E+00  1.00000000E+00  2.54938145E-02
  1.90373109E-01  8.52161486E-01  1.00000000E+00  1.00000000E+00  1.00000000E+00
  2.54938145E-02  1.90373109E-01  8.52161486E-01  1.00000000E+00  1.00000000E+00
  1.00000000E+00  2.54938145E-02  1.90373109E-01  8.52161486E-01  1.00000000E+00
  1.00000000E+00  1.00000000E+00  2.54938145E-02  1.90373109E-01  8.52161486E-01
  1.00000000E+00  1.00000000E+00  1.00000000E+00  2.54938145E-02  1.90373109E-01
  8.52161486E-01  1.00000000E+00  1.00000000E+00  1.00000000E+00  2.54938145E-02
  1.90373109E-01  8.52161486E-01  1.00000000E+00  1.00000000E+00  1.00000000E+00
  2.54938145E-02  1.90373109E-01  8.52161486E-01  1.00000000E+00  1.00000000E+00
  1.00000000E+00  2.15374907E-03  1.65822928E-02  8.21869644E-02  2.76617880E-01
  6.29315727E-01  1.73769925E-01  1.17442942E-01  9.18001549E-01 -2.65104870E-03
  1.00000000E+00  1.00000000E+00  1.00000000E+00  1.96978815E-03  1.49612859E-02
  7.35005308E-02  2.48936766E-01  6.02459433E-01  2.56201759E-01  1.11906080E-01
  9.21666655E-01 -2.56919183E-03  1.00000000E+00  1.00000000E+00  1.00000000E+00
  1.96978815E-03  1.49612859E-02  7.35005308E-02  2.48936766E-01  6.02459433E-01
  2.56201759E-01  1.11906080E-01  9.21666655E-01 -2.56919183E-03  1.00000000E+00
  1.00000000E+00  1.00000000E+00  2.15374907E-03  1.65822928E-02  8.21869644E-02
  2.76617880E-01  6.29315727E-01  1.73769925E-01  1.17442942E-01  9.18001549E-01
 -2.65104870E-03  1.00000000E+00  1.00000000E+00  1.00000000E+00
P(S=P) Contraction coefficients            R   N=         144
  0.00000000E+00  0.00000000E+00  0.00000000E+00  0.00000000E+00  0.00000000E+00
  0.00000000E+00  4.02486927E-02  2.37593957E-01  8.15853851E-01  1.00000000E+00
  1.00000000E+00  0.00000000E+00  0.00000000E+00  0.00000000E+00  0.00000000E+00
  0.00000000E+00  0.00000000E+00  0.00000000E+00  4.02486927E-02  2.37593957E-01
  8.15853851E-01  1.00000000E+00  1.00000000E+00  0.00000000E+00  0.00000000E+00
  0.00000000E+00  0.00000000E+00  0.00000000E+00  0.00000000E+00  0.00000000E+00
  4.02486927E-02  2.37593957E-01  8.15853851E-01  1.00000000E+00  1.00000000E+00
  0.00000000E+00  0.00000000E+00  0.00000000E+00  0.00000000E+00  0.00000000E+00
  0.00000000E+00  0.00000000E+00  4.02486927E-02  2.37593957E-01  8.15853851E-01
  1.00000000E+00  1.00000000E+00  0.00000000E+00  0.00000000E+00  0.00000000E+00
  0.00000000E+00  0.00000000E+00  0.00000000E+00  0.00000000E+00  0.00000000E+00
  0.00000000E+00  0.00000000E+00  0.00000000E+00  0.00000000E+00  0.00000000E+00
  0.00000000E+00  0.00000000E+00  0.00000000E+00  0.00000000E+00  0.00000000E+00
  0.00000000E+00  0.00000000E+00  0.00000000E+00  0.00000000E+00  0.00000000E+00
  0.00000000E+00  0.00000000E+00  0.00000000E+00  0.00000000E+00  0.00000000E+00
  0.00000000E+00  0.00000000E+00  0.00000000E+00  0.00000000E+00  0.00000000E+00
  0.00000000E+00  0.00000000E+00  0.00000000E+00  0.00000000E+00  0.00000000E+00
  0.00000000E+00  0.00000000E+00  0.00000000E+00  0.00000000E+00  0.00000000E+00
  0.00000000E+00  0.00000000E+00  0.00000000E+00  0.00000000E+00  0.00000000E+00
  0.00000000E+00  0.00000000E+00  0.00000000E+00  0.00000000E+00  0.00000000E+00
  0.00000000E+00  0.00000000E+00  4.18099989E-02  2.36574994E-01  8.16213978E-01
  1.00000000E+00  1.00000000E+00  0.00000000E+00  0.00000000E+00  0.00000000E+00
  0.00000000E+00  0.00000000E+00  0.00000000E+00  0.00000000E+00  3.83119186E-02
  2.37403116E-01  8.17592398E-01  1.00000000E+00  1.00000000E+00  0.00000000E+00
  0.00000000E+00  0.00000000E+00  0.00000000E+00  0.00000000E+00  0.00000000E+00
  0.00000000E+00  3.83119186E-02  2.37403116E-01  8.17592398E-01  1.00000000E+00
  1.00000000E+00  0.00000000E+00  0.00000000E+00  0.00000000E+00  0.00000000E+00
  0.00000000E+00  0.00000000E+00  0.00000000E+00  4.18099989E-02  2.36574994E-01
  8.16213978E-01  1.00000000E+00  1.00000000E+00  0.00000000E+00
Coordinates of each shell                  R   N=         216
  1.32872880E+00  3.45947437E+00  0.00000000E+00  1.32872880E+00  3.45947437E+00
  0.00000000E+00  1.32872880E+00  3.45947437E+00  0.00000000E+00  1.32872880E+00
  3.45947437E+00  0.00000000E+00  1.32872880E+00  3.45947437E+00  0.00000000E+00
  1.33017444E+00 -3.15399637E+00  0.00000000E+00  1.33017444E+00 -3.15399637E+00
  0.00000000E+00  1.33017444E+00 -3.15399637E+00  0.00000000E+00  1.33017444E+00
 -3.15399637E+00  0.00000000E+00  1.33017444E+00 -3.15399637E+00  0.00000000E+00
 -1.33017444E+00 -3.15399637E+00  0.00000000E+00 -1.33017444E+00 -3.15399637E+00
  0.00000000E+00 -1.33017444E+00 -3.15399637E+00  0.00000000E+00 -1.33017444E+00
 -3.15399637E+00  0.00000000E+00 -1.33017444E+00 -3.15399637E+00  0.00000000E+00
 -1.32872880E+00  3.45947437E+00  0.00000000E+00 -1.32872880E+00  3.45947437E+00
  0.00000000E+00 -1.32872880E+00  3.45947437E+00  0.00000000E+00 -1.32872880E+00
  3.45947437E+00  0.00000000E+00 -1.32872880E+00  3.45947437E+00  0.00000000E+00
  2.09816859E+00 -5.05506085E+00  0.00000000E+00  2.09816859E+00 -5.05506085E+00
  0.00000000E+00  2.09816859E+00 -5.05506085E+00  0.00000000E+00  2.09816859E+00
 -5.05506085E+00  0.00000000E+00  4.83731715E+00 -2.12521624E+00  0.00000000E+00
  4.83731715E+00 -2.12521624E+00  0.00000000E+00  4.83731715E+00 -2.12521624E+00
  0.00000000E+00  4.83731715E+00 -2.12521624E+00  0.00000000E+00  5.50256878E+00
  2.04089288E+00  0.00000000E+00  5.50256878E+00  2.04089288E+00  0.00000000E+00
  5.50256878E+00  2.04089288E+00  0.00000000E+00  5.50256878E+00  2.04089288E+00
  0.00000000E+00  2.15588082E+00  5.34916648E+00  0.00000000E+00  2.15588082E+00
  5.34916648E+00  0.00000000E+00  2.15588082E+00  5.34916648E+00  0.00000000E+00
  2.15588082E+00  5.34916648E+00  0.00000000E+00 -2.15588082E+00  5.34916648E+00
  0.00000000E+00 -2.15588082E+00  5.34916648E+00  0.00000000E+00 -2.15588082E+00
  5.34916648E+00  0.00000000E+00 -2.15588082E+00  5.34916648E+00  0.00000000E+00
 -5.50256878E+00  2.04089288E+00  0.00000000E+00 -5.50256878E+00  2.04089288E+00
  0.00000000E+00 -5.50256878E+00  2.04089288E+00  0.00000000E+00 -5.50256878E+00
  2.04089288E+00  0.00000000E+00 -4.83731715E+00 -2.12521624E+00  0.00000000E+00
 -4.83731715E+00 -2.12521624E+00  0.00000000E+00 -4.83731715E+00 -2.12521624E+00
  0.00000000E+00 -4.83731715E+00 -2.12521624E+00  0.00000000E+00 -2.09816859E+00
 -5.05506085E+00  0.00000000E+00 -2.09816859E+00 -5.05506085E+00  0.00000000E+00
 -2.09816859E+00 -5.05506085E+00  0.00000000E+00 -2.09816859E+00 -5.05506085E+00
  0.00000000E+00  3.31367066E+00  1.46533332E+00  0.00000000E+00  3.31367066E+00
  1.46533332E+00  0.00000000E+00  3.31367066E+00  1.46533332E+00  0.00000000E+00
  3.31367066E+00  1.46533332E+00  0.00000000E+00  3.31367066E+00  1.46533332E+00
  0.00000000E+00  3.09351001E+00 -1.33847412E+00  0.00000000E+00  3.09351001E+00
 -1.33847412E+00  0.00000000E+00  3.09351001E+00 -1.33847412E+00  0.00000000E+00
  3.09351001E+00 -1.33847412E+00  0.00000000E+00  3.09351001E+00 -1.33847412E+00
  0.00000000E+00 -3.09351001E+00 -1.33847412E+00  0.00000000E+00 -3.09351001E+00
 -1.33847412E+00  0.00000000E+00 -3.09351001E+00 -1.33847412E+00  0.00000000E+00
 -3.09351001E+00 -1.33847412E+00  0.00000000E+00 -3.09351001E+00 -1.33847412E+00
  0.00000000E+00 -3.31367066E+00  1.46533332E+00  0.00000000E+00 -3.31367066E+00
  1.46533332E+00  0.00000000E+00 -3.31367066E+00  1.46533332E+00  0.00000000E+00
 -3.31367066E+00  1.46533332E+00  0.00000000E+00 -3.31367066E+00  1.46533332E+00
  0.00000000E+00
Num ILSW                                   I              100
ILSW                                       I   N=         100
           1           0           0           0           2           0
           0           0           0           0         402          -1
           5           0           0           0           0           0
           0           0           0           0           0           0
           1           1           0           0           0           0
           0           0      100000           0          -1           0
           0           0           0           0           0           0
           0           0           0           1           0           0
           0 -2000000000           1           0           0           0
           0           0           4          52           0           0
           0           0           5           0           0           0
           0           0           0          16           0           1
           0           0           0           0           0           0
           0           0           0           0           0           0
           0           0           0           0           0           0
           0           0           0           0           0           0
           0           0           0           0
Num RLSW                                   I               52
RLSW                                       R   N=          52
  8.00000000E-01  7.20000000E-01  1.00000000E+00  8.10000000E-01  2.00000000E-01
  0.00000000E+00  0.00000000E+00  1.00000000E+00  0.00000000E+00  0.00000000E+00
  0.00000000E+00  0.00000000E+00  1.00000000E+00  0.00000000E+00  0.00000000E+00
  0.00000000E+00  0.00000000E+00  1.00000000E+00  0.00000000E+00  0.00000000E+00
  0.00000000E+00  0.00000000E+00  1.00000000E+00  0.00000000E+00  0.00000000E+00
  0.00000000E+00  0.00000000E+00  1.00000000E+00  0.00000000E+00  0.00000000E+00
  0.00000000E+00  0.00000000E+00  1.00000000E+00  0.00000000E+00  0.00000000E+00
  0.00000000E+00  0.00000000E+00  0.00000000E+00  1.00000000E+00  1.00000000E+00
  0.00000000E+00  1.00000000E+00  0.00000000E+00  0.00000000E+00  0.00000000E+00
  0.00000000E+00  0.00000000E+00  0.00000000E+00  0.00000000E+00  0.00000000E+00
  0.00000000E+00  0.00000000E+00
MxBond                                     I                3
NBond                                      I   N=          16
           3           3           3           3           1           1
           1           1           1           1           1           1
           3           3           3           3
IBond                                      I   N=          48
           4           8          13           3           5          14
           2          12          15           1           9          16
           2           0           0          14           0           0
          13           0           0           1           0           0
           4           0           0          16           0           0
          15           0           0           3           0           0
           1           7          14           2           6          13
           3          11          16           4          10          15
RBond                                      R   N=          48
  1.50000000E+00  1.00000000E+00  1.00000000E+00  1.50000000E+00  1.00000000E+00
  1.50000000E+00  1.50000000E+00  1.00000000E+00  1.50000000E+00  1.50000000E+00
  1.00000000E+00  1.00000000E+00  1.00000000E+00  0.00000000E+00  0.00000000E+00
  1.00000000E+00  0.00000000E+00  0.00000000E+00  1.00000000E+00  0.00000000E+00
  0.00000000E+00  1.00000000E+00  0.00000000E+00  0.00000000E+00  1.00000000E+00
  0.00000000E+00  0.00000000E+00  1.00000000E+00  0.00000000E+00  0.00000000E+00
  1.00000000E+00  0.00000000E+00  0.00000000E+00  1.00000000E+00  0.00000000E+00
  0.00000000E+00  1.00000000E+00  1.00000000E+00  1.00000000E+00  1.50000000E+00
  1.00000000E+00  1.00000000E+00  1.50000000E+00  1.00000000E+00  1.00000000E+00
  1.00000000E+00  1.00000000E+00  1.00000000E+00
Virial Ratio                               R      2.004354579472435E+00
SCF Energy                                 R     -3.165051810851253E+02
Total Energy                               R     -3.165051810851253E+02
S**2                                       R      2.003414410043401E+00
S**2 after annihilation                    R      2.000007679166006E+00
RMS Density                                R      6.103971477726669E-09
Job Status                                 I                1
Nuclear derivative order                   I                0
External E-field                           R   N=          35
  0.00000000E+00  0.00000000E+00  0.00000000E+00  0.00000000E+00  0.00000000E+00
  0.00000000E+00  0.00000000E+00  0.00000000E+00  0.00000000E+00  0.00000000E+00
  0.00000000E+00  0.00000000E+00  0.00000000E+00  0.00000000E+00  0.00000000E+00
  0.00000000E+00  0.00000000E+00  0.00000000E+00  0.00000000E+00  0.00000000E+00
  0.00000000E+00  0.00000000E+00  0.00000000E+00  0.00000000E+00  0.00000000E+00
  0.00000000E+00  0.00000000E+00  0.00000000E+00  0.00000000E+00  0.00000000E+00
  0.00000000E+00  0.00000000E+00  0.00000000E+00  0.00000000E+00  0.00000000E+00
IOpCl                                      I                1
IROHF                                      I                0
Alpha Orbital Energies                     R   N=         192
 -1.43674125E+01 -1.43673996E+01 -1.02512274E+01 -1.02507473E+01 -1.01316440E+01
 -1.01311562E+01 -6.71322440E+00 -6.71320264E+00 -9.70875712E-01 -9.47528062E-01
 -7.68272385E-01 -7.25234930E-01 -6.42077675E-01 -5.79150335E-01 -5.74820553E-01
 -5.63879850E-01 -5.23287047E-01 -4.44349810E-01 -4.43081490E-01 -4.34872704E-01
 -4.21580943E-01 -3.86427765E-01 -3.81202533E-01 -3.39988485E-01 -3.08658286E-01
 -2.96407629E-01 -2.86209473E-01 -2.21828073E-01 -1.48009069E-01 -2.27267776E-03
 -3.06010387E-04  3.07655333E-02  3.14740596E-02  6.55586934E-02  8.93485188E-02
  1.07206579E-01  1.30244168E-01  1.30688814E-01  1.33899129E-01  1.65149849E-01
  1.85552638E-01  2.14944778E-01  2.16663776E-01  2.33846904E-01  2.52077996E-01
  2.63721074E-01  2.83726194E-01  2.84375486E-01  3.08309754E-01  3.22761329E-01
  3.25473296E-01  3.47730674E-01  3.64688085E-01  3.78579284E-01  3.88166376E-01
  3.89102534E-01  4.17948860E-01  4.26599235E-01  4.35563349E-01  4.67798941E-01
  4.84689608E-01  4.99635269E-01  5.15994831E-01  5.16475984E-01  5.67068613E-01
  5.69408602E-01  5.72833310E-01  5.85596472E-01  6.11894604E-01  6.32199606E-01
  6.51741471E-01  6.79903763E-01  6.87088119E-01  7.29757520E-01  7.34829704E-01
  7.35536940E-01  7.40869355E-01  7.53633634E-01  7.93121723E-01  7.94762199E-01
  8.06170259E-01  8.35807053E-01  8.37532903E-01  8.51562277E-01  8.61725517E-01
  9.61320994E-01  9.66824572E-01  9.69311930E-01  9.75986474E-01  9.96752855E-01
  1.06699862E+00  1.07359132E+00  1.10408035E+00  1.12335243E+00  1.13395595E+00
  1.15191003E+00  1.18840310E+00  1.22185921E+00  1.22802970E+00  1.34670014E+00
  1.37778836E+00  1.39955459E+00  1.43424853E+00  1.44486194E+00  1.44754528E+00
  1.47609420E+00  1.51524687E+00  1.51809013E+00  1.56415464E+00  1.57439087E+00
  1.58034717E+00  1.65448757E+00  1.67869850E+00  1.68987975E+00  1.69894272E+00
  1.70051838E+00  1.73263067E+00  1.75099840E+00  1.75338254E+00  1.80356783E+00
  1.82807287E+00  1.83664351E+00  1.84474609E+00  1.87310935E+00  1.88137019E+00
  1.89154545E+00  1.89299300E+00  1.91681246E+00  1.94767264E+00  1.97717575E+00
  1.99210887E+00  2.03130275E+00  2.06389948E+00  2.09720255E+00  2.10047978E+00
  2.16328113E+00  2.21827740E+00  2.25946467E+00  2.29642469E+00  2.35638714E+00
  2.36184694E+00  2.37285872E+00  2.38562635E+00  2.40097572E+00  2.41568923E+00
  2.44097032E+00  2.50336261E+00  2.54452481E+00  2.54902160E+00  2.60335991E+00
  2.62663623E+00  2.64661139E+00  2.65790461E+00  2.65959065E+00  2.66210671E+00
  2.67955177E+00  2.71299409E+00  2.72405527E+00  2.74653172E+00  2.77704408E+00
  2.78938630E+00  2.84388379E+00  2.85137473E+00  2.89247421E+00  2.90484795E+00
  2.95205207E+00  2.98790447E+00  3.04040386E+00  3.13506574E+00  3.21529910E+00
  3.34413193E+00  3.38000176E+00  3.52971223E+00  3.63216598E+00  3.69405790E+00
  3.71628797E+00  3.78330952E+00  3.82472414E+00  4.04661019E+00  4.17422170E+00
  4.58014694E+00  4.66952571E+00  4.76028688E+00  5.11027197E+00  1.46736590E+01
  1.47845168E+01  2.37125053E+01  2.38155836E+01  2.40306877E+01  2.41137964E+01
  3.54999284E+01  3.56011198E+01
Beta Orbital Energies                      R   N=         192
 -1.43626448E+01 -1.43626312E+01 -1.02470365E+01 -1.02465803E+01 -1.01284237E+01
 -1.01279275E+01 -6.71057155E+00 -6.71055374E+00 -9.58956879E-01 -9.36204456E-01
 -7.51367409E-01 -7.13639829E-01 -6.32056110E-01 -5.75401604E-01 -5.62601564E-01
 -5.56031199E-01 -5.18613229E-01 -4.37618818E-01 -4.37247952E-01 -4.17247885E-01
 -3.98969290E-01 -3.81004312E-01 -3.45238088E-01 -3.36572682E-01 -3.05656001E-01
 -2.90981335E-01 -2.44867801E-01 -1.39173132E-01 -7.27770162E-02 -7.79270831E-04
  3.18753950E-02  4.45319239E-02  6.32228230E-02  6.71919595E-02  9.06939758E-02
  1.10232223E-01  1.32443297E-01  1.39631044E-01  1.59437331E-01  1.70338848E-01
  1.87538665E-01  2.21821199E-01  2.23140420E-01  2.36659928E-01  2.57586577E-01
  2.70986881E-01  2.88125233E-01  3.02508736E-01  3.13632810E-01  3.33379316E-01