Title Card Required                                                     
SP        RB3LYP                                                      6-311G(d,p)         
Number of atoms                            I               16
Info1-9                                    I   N=           9
          23          23           0           0           0         110
           1          18        -502
Full Title                                 C   N=           2
Title Card Required     
Route                                      C   N=           5
#p b3lyp/6-311g(d,p) nosymm pop=nbo density=current         
Charge                                     I                0
Multiplicity                               I                1
Number of electrons                        I               56
Number of alpha electrons                  I               28
Number of beta electrons                   I               28
Number of basis functions                  I              192
Number of independent functions            I              192
Number of point charges in /Mol/           I                0
Number of translation vectors              I                0
Atomic numbers                             I   N=          16
           6           6           6           6           1           1
           1           1           1           1           1           1
           5           7           7           5
Nuclear charges                            R   N=          16
  6.00000000E+00  6.00000000E+00  6.00000000E+00  6.00000000E+00  1.00000000E+00
  1.00000000E+00  1.00000000E+00  1.00000000E+00  1.00000000E+00  1.00000000E+00
  1.00000000E+00  1.00000000E+00  5.00000000E+00  7.00000000E+00  7.00000000E+00
  5.00000000E+00
Current cartesian coordinates              R   N=          48
  3.20556699E+00  1.27219953E+00  6.80567856E-01 -2.89020194E+00  1.25958939E+00
  7.31367474E-01 -2.88958400E+00 -1.26101046E+00  7.31255980E-01  3.20618115E+00
 -1.27065563E+00  6.80730373E-01 -4.30892138E+00  2.20154038E+00  1.87930617E+00
 -2.26590446E+00  4.28725756E+00 -1.52844073E+00  2.17045817E+00  4.76054703E+00
 -1.99754067E+00  4.77980901E+00  2.21888240E+00  1.62602618E+00  4.78087859E+00
 -2.21645410E+00  1.62631153E+00  2.17291103E+00 -4.75962484E+00 -1.99726855E+00
 -2.26371048E+00 -4.28827235E+00 -1.52865615E+00 -4.30782723E+00 -2.20376648E+00
  1.87912476E+00  1.35418341E+00  3.04575096E+00 -7.65934344E-01 -1.29352509E+00
  2.88800041E+00 -6.60183381E-01 -1.29205677E+00 -2.88853520E+00 -6.60359125E-01
  1.35573865E+00 -3.04517271E+00 -7.65781276E-01
Number of symbols in /Mol/                 I                0
Force Field                                I                0
Atom Types                                 C   N=          16
                                                            
                                                            
                                                            
            
Int Atom Types                             I   N=          16
           0           0           0           0           0           0
           0           0           0           0           0           0
           0           0           0           0
MM charges                                 R   N=          16
  0.00000000E+00  0.00000000E+00  0.00000000E+00  0.00000000E+00  0.00000000E+00
  0.00000000E+00  0.00000000E+00  0.00000000E+00  0.00000000E+00  0.00000000E+00
  0.00000000E+00  0.00000000E+00  0.00000000E+00  0.00000000E+00  0.00000000E+00
  0.00000000E+00
Integer atomic weights                     I   N=          16
          12          12          12          12           1           1
           1           1           1           1           1           1
          11          14          14          11
Real atomic weights                        R   N=          16
  1.20000000E+01  1.20000000E+01  1.20000000E+01  1.20000000E+01  1.00782504E+00
  1.00782504E+00  1.00782504E+00  1.00782504E+00  1.00782504E+00  1.00782504E+00
  1.00782504E+00  1.00782504E+00  1.10093053E+01  1.40030740E+01  1.40030740E+01
  1.10093053E+01
Atom fragment info                         I   N=          16
           0           0           0           0           0           0
           0           0           0           0           0           0
           0           0           0           0
Atom residue num                           I   N=          16
           0           0           0           0           0           0
           0           0           0           0           0           0
           0           0           0           0
Nuclear spins                              I   N=          16
           0           0           0           0           1           1
           1           1           1           1           1           1
           3           2           2           3
Nuclear ZEff                               R   N=          16
 -3.60000000E+00 -3.60000000E+00 -3.60000000E+00 -3.60000000E+00 -1.00000000E+00
 -1.00000000E+00 -1.00000000E+00 -1.00000000E+00 -1.00000000E+00 -1.00000000E+00
 -1.00000000E+00 -1.00000000E+00 -2.75000000E+00 -4.55000000E+00 -4.55000000E+00
 -2.75000000E+00
Nuclear ZNuc                               R   N=          16
  6.00000000E+00  6.00000000E+00  6.00000000E+00  6.00000000E+00  1.00000000E+00
  1.00000000E+00  1.00000000E+00  1.00000000E+00  1.00000000E+00  1.00000000E+00
  1.00000000E+00  1.00000000E+00  5.00000000E+00  7.00000000E+00  7.00000000E+00
  5.00000000E+00
Nuclear QMom                               R   N=          16
  0.00000000E+00  0.00000000E+00  0.00000000E+00  0.00000000E+00  0.00000000E+00
  0.00000000E+00  0.00000000E+00  0.00000000E+00  0.00000000E+00  0.00000000E+00
  0.00000000E+00  0.00000000E+00  4.05900000E+00  2.04400000E+00  2.04400000E+00
  4.05900000E+00
Nuclear GFac                               R   N=          16
  0.00000000E+00  0.00000000E+00  0.00000000E+00  0.00000000E+00  2.79284600E+00
  2.79284600E+00  2.79284600E+00  2.79284600E+00  2.79284600E+00  2.79284600E+00
  2.79284600E+00  2.79284600E+00  2.68863700E+00  4.03761000E-01  4.03761000E-01
  2.68863700E+00
MicOpt                                     I   N=          16
          -1          -1          -1          -1          -1          -1
          -1          -1          -1          -1          -1          -1
          -1          -1          -1          -1
Number of residues                         I                0
Number of secondary structures             I                0
Number of contracted shells                I               72
Number of primitive shells                 I              144
Pure/Cartesian d shells                    I                0
Pure/Cartesian f shells                    I                0
Highest angular momentum                   I                2
Largest degree of contraction              I                6
Shell types                                I   N=          72
           0          -1          -1          -1          -2           0
          -1          -1          -1          -2           0          -1
          -1          -1          -2           0          -1          -1
          -1          -2           0           0           0           1
           0           0           0           1           0           0
           0           1           0           0           0           1
           0           0           0           1           0           0
           0           1           0           0           0           1
           0           0           0           1           0          -1
          -1          -1          -2           0          -1          -1
          -1          -2           0          -1          -1          -1
          -2           0          -1          -1          -1          -2
Number of primitives per shell             I   N=          72
           6           3           1           1           1           6
           3           1           1           1           6           3
           1           1           1           6           3           1
           1           1           3           1           1           1
           3           1           1           1           3           1
           1           1           3           1           1           1
           3           1           1           1           3           1
           1           1           3           1           1           1
           3           1           1           1           6           3
           1           1           1           6           3           1
           1           1           6           3           1           1
           1           6           3           1           1           1
Shell to atom map                          I   N=          72
           1           1           1           1           1           2
           2           2           2           2           3           3
           3           3           3           4           4           4
           4           4           5           5           5           5
           6           6           6           6           7           7
           7           7           8           8           8           8
           9           9           9           9          10          10
          10          10          11          11          11          11
          12          12          12          12          13          13
          13          13          13          14          14          14
          14          14          15          15          15          15
          15          16          16          16          16          16
Primitive exponents                        R   N=         144
  4.56324000E+03  6.82024000E+02  1.54973000E+02  4.44553000E+01  1.30290000E+01
  1.82773000E+00  2.09642000E+01  4.80331000E+00  1.45933000E+00  4.83456000E-01
  1.45585000E-01  6.26000000E-01  4.56324000E+03  6.82024000E+02  1.54973000E+02
  4.44553000E+01  1.30290000E+01  1.82773000E+00  2.09642000E+01  4.80331000E+00
  1.45933000E+00  4.83456000E-01  1.45585000E-01  6.26000000E-01  4.56324000E+03
  6.82024000E+02  1.54973000E+02  4.44553000E+01  1.30290000E+01  1.82773000E+00
  2.09642000E+01  4.80331000E+00  1.45933000E+00  4.83456000E-01  1.45585000E-01
  6.26000000E-01  4.56324000E+03  6.82024000E+02  1.54973000E+02  4.44553000E+01
  1.30290000E+01  1.82773000E+00  2.09642000E+01  4.80331000E+00  1.45933000E+00
  4.83456000E-01  1.45585000E-01  6.26000000E-01  3.38650000E+01  5.09479000E+00
  1.15879000E+00  3.25840000E-01  1.02741000E-01  7.50000000E-01  3.38650000E+01
  5.09479000E+00  1.15879000E+00  3.25840000E-01  1.02741000E-01  7.50000000E-01
  3.38650000E+01  5.09479000E+00  1.15879000E+00  3.25840000E-01  1.02741000E-01
  7.50000000E-01  3.38650000E+01  5.09479000E+00  1.15879000E+00  3.25840000E-01
  1.02741000E-01  7.50000000E-01  3.38650000E+01  5.09479000E+00  1.15879000E+00
  3.25840000E-01  1.02741000E-01  7.50000000E-01  3.38650000E+01  5.09479000E+00
  1.15879000E+00  3.25840000E-01  1.02741000E-01  7.50000000E-01  3.38650000E+01
  5.09479000E+00  1.15879000E+00  3.25840000E-01  1.02741000E-01  7.50000000E-01
  3.38650000E+01  5.09479000E+00  1.15879000E+00  3.25840000E-01  1.02741000E-01
  7.50000000E-01  2.85889000E+03  4.28140000E+02  9.75282000E+01  2.79693000E+01
  8.21577000E+00  1.11278000E+00  1.32415000E+01  3.00166000E+00  9.12856000E-01
  3.15454000E-01  9.88563000E-02  4.01000000E-01  6.29348000E+03  9.49044000E+02
  2.18776000E+02  6.36916000E+01  1.88282000E+01  2.72023000E+00  3.06331000E+01
  7.02614000E+00  2.11205000E+00  6.84009000E-01  2.00878000E-01  9.13000000E-01
  6.29348000E+03  9.49044000E+02  2.18776000E+02  6.36916000E+01  1.88282000E+01
  2.72023000E+00  3.06331000E+01  7.02614000E+00  2.11205000E+00  6.84009000E-01
  2.00878000E-01  9.13000000E-01  2.85889000E+03  4.28140000E+02  9.75282000E+01
  2.79693000E+01  8.21577000E+00  1.11278000E+00  1.32415000E+01  3.00166000E+00
  9.12856000E-01  3.15454000E-01  9.88563000E-02  4.01000000E-01
Contraction coefficients                   R   N=         144
  1.96665025E-03  1.52306019E-02  7.61269097E-02  2.60801033E-01  6.16462078E-01
  2.21006028E-01  1.14660081E-01  9.19999648E-01 -3.03068213E-03  1.00000000E+00
  1.00000000E+00  1.00000000E+00  1.96665025E-03  1.52306019E-02  7.61269097E-02
  2.60801033E-01  6.16462078E-01  2.21006028E-01  1.14660081E-01  9.19999648E-01
 -3.03068213E-03  1.00000000E+00  1.00000000E+00  1.00000000E+00  1.96665025E-03
  1.52306019E-02  7.61269097E-02  2.60801033E-01  6.16462078E-01  2.21006028E-01
  1.14660081E-01  9.19999648E-01 -3.03068213E-03  1.00000000E+00  1.00000000E+00
  1.00000000E+00  1.96665025E-03  1.52306019E-02  7.61269097E-02  2.60801033E-01
  6.16462078E-01  2.21006028E-01  1.14660081E-01  9.19999648E-01 -3.03068213E-03
  1.00000000E+00  1.00000000E+00  1.00000000E+00  2.54938145E-02  1.90373109E-01
  8.52161486E-01  1.00000000E+00  1.00000000E+00  1.00000000E+00  2.54938145E-02
  1.90373109E-01  8.52161486E-01  1.00000000E+00  1.00000000E+00  1.00000000E+00
  2.54938145E-02  1.90373109E-01  8.52161486E-01  1.00000000E+00  1.00000000E+00
  1.00000000E+00  2.54938145E-02  1.90373109E-01  8.52161486E-01  1.00000000E+00
  1.00000000E+00  1.00000000E+00  2.54938145E-02  1.90373109E-01  8.52161486E-01
  1.00000000E+00  1.00000000E+00  1.00000000E+00  2.54938145E-02  1.90373109E-01
  8.52161486E-01  1.00000000E+00  1.00000000E+00  1.00000000E+00  2.54938145E-02
  1.90373109E-01  8.52161486E-01  1.00000000E+00  1.00000000E+00  1.00000000E+00
  2.54938145E-02  1.90373109E-01  8.52161486E-01  1.00000000E+00  1.00000000E+00
  1.00000000E+00  2.15374907E-03  1.65822928E-02  8.21869644E-02  2.76617880E-01
  6.29315727E-01  1.73769925E-01  1.17442942E-01  9.18001549E-01 -2.65104870E-03
  1.00000000E+00  1.00000000E+00  1.00000000E+00  1.96978815E-03  1.49612859E-02
  7.35005308E-02  2.48936766E-01  6.02459433E-01  2.56201759E-01  1.11906080E-01
  9.21666655E-01 -2.56919183E-03  1.00000000E+00  1.00000000E+00  1.00000000E+00
  1.96978815E-03  1.49612859E-02  7.35005308E-02  2.48936766E-01  6.02459433E-01
  2.56201759E-01  1.11906080E-01  9.21666655E-01 -2.56919183E-03  1.00000000E+00
  1.00000000E+00  1.00000000E+00  2.15374907E-03  1.65822928E-02  8.21869644E-02
  2.76617880E-01  6.29315727E-01  1.73769925E-01  1.17442942E-01  9.18001549E-01
 -2.65104870E-03  1.00000000E+00  1.00000000E+00  1.00000000E+00
P(S=P) Contraction coefficients            R   N=         144
  0.00000000E+00  0.00000000E+00  0.00000000E+00  0.00000000E+00  0.00000000E+00
  0.00000000E+00  4.02486927E-02  2.37593957E-01  8.15853851E-01  1.00000000E+00
  1.00000000E+00  0.00000000E+00  0.00000000E+00  0.00000000E+00  0.00000000E+00
  0.00000000E+00  0.00000000E+00  0.00000000E+00  4.02486927E-02  2.37593957E-01
  8.15853851E-01  1.00000000E+00  1.00000000E+00  0.00000000E+00  0.00000000E+00
  0.00000000E+00  0.00000000E+00  0.00000000E+00  0.00000000E+00  0.00000000E+00
  4.02486927E-02  2.37593957E-01  8.15853851E-01  1.00000000E+00  1.00000000E+00
  0.00000000E+00  0.00000000E+00  0.00000000E+00  0.00000000E+00  0.00000000E+00
  0.00000000E+00  0.00000000E+00  4.02486927E-02  2.37593957E-01  8.15853851E-01
  1.00000000E+00  1.00000000E+00  0.00000000E+00  0.00000000E+00  0.00000000E+00
  0.00000000E+00  0.00000000E+00  0.00000000E+00  0.00000000E+00  0.00000000E+00
  0.00000000E+00  0.00000000E+00  0.00000000E+00  0.00000000E+00  0.00000000E+00
  0.00000000E+00  0.00000000E+00  0.00000000E+00  0.00000000E+00  0.00000000E+00
  0.00000000E+00  0.00000000E+00  0.00000000E+00  0.00000000E+00  0.00000000E+00
  0.00000000E+00  0.00000000E+00  0.00000000E+00  0.00000000E+00  0.00000000E+00
  0.00000000E+00  0.00000000E+00  0.00000000E+00  0.00000000E+00  0.00000000E+00
  0.00000000E+00  0.00000000E+00  0.00000000E+00  0.00000000E+00  0.00000000E+00
  0.00000000E+00  0.00000000E+00  0.00000000E+00  0.00000000E+00  0.00000000E+00
  0.00000000E+00  0.00000000E+00  0.00000000E+00  0.00000000E+00  0.00000000E+00
  0.00000000E+00  0.00000000E+00  0.00000000E+00  0.00000000E+00  0.00000000E+00
  0.00000000E+00  0.00000000E+00  4.18099989E-02  2.36574994E-01  8.16213978E-01
  1.00000000E+00  1.00000000E+00  0.00000000E+00  0.00000000E+00  0.00000000E+00
  0.00000000E+00  0.00000000E+00  0.00000000E+00  0.00000000E+00  3.83119186E-02
  2.37403116E-01  8.17592398E-01  1.00000000E+00  1.00000000E+00  0.00000000E+00
  0.00000000E+00  0.00000000E+00  0.00000000E+00  0.00000000E+00  0.00000000E+00
  0.00000000E+00  3.83119186E-02  2.37403116E-01  8.17592398E-01  1.00000000E+00
  1.00000000E+00  0.00000000E+00  0.00000000E+00  0.00000000E+00  0.00000000E+00
  0.00000000E+00  0.00000000E+00  0.00000000E+00  4.18099989E-02  2.36574994E-01
  8.16213978E-01  1.00000000E+00  1.00000000E+00  0.00000000E+00
Coordinates of each shell                  R   N=         216
  3.20556699E+00  1.27219953E+00  6.80567856E-01  3.20556699E+00  1.27219953E+00
  6.80567856E-01  3.20556699E+00  1.27219953E+00  6.80567856E-01  3.20556699E+00
  1.27219953E+00  6.80567856E-01  3.20556699E+00  1.27219953E+00  6.80567856E-01
 -2.89020194E+00  1.25958939E+00  7.31367474E-01 -2.89020194E+00  1.25958939E+00
  7.31367474E-01 -2.89020194E+00  1.25958939E+00  7.31367474E-01 -2.89020194E+00
  1.25958939E+00  7.31367474E-01 -2.89020194E+00  1.25958939E+00  7.31367474E-01
 -2.88958400E+00 -1.26101046E+00  7.31255980E-01 -2.88958400E+00 -1.26101046E+00
  7.31255980E-01 -2.88958400E+00 -1.26101046E+00  7.31255980E-01 -2.88958400E+00
 -1.26101046E+00  7.31255980E-01 -2.88958400E+00 -1.26101046E+00  7.31255980E-01
  3.20618115E+00 -1.27065563E+00  6.80730373E-01  3.20618115E+00 -1.27065563E+00
  6.80730373E-01  3.20618115E+00 -1.27065563E+00  6.80730373E-01  3.20618115E+00
 -1.27065563E+00  6.80730373E-01  3.20618115E+00 -1.27065563E+00  6.80730373E-01
 -4.30892138E+00  2.20154038E+00  1.87930617E+00 -4.30892138E+00  2.20154038E+00
  1.87930617E+00 -4.30892138E+00  2.20154038E+00  1.87930617E+00 -4.30892138E+00
  2.20154038E+00  1.87930617E+00 -2.26590446E+00  4.28725756E+00 -1.52844073E+00
 -2.26590446E+00  4.28725756E+00 -1.52844073E+00 -2.26590446E+00  4.28725756E+00
 -1.52844073E+00 -2.26590446E+00  4.28725756E+00 -1.52844073E+00  2.17045817E+00
  4.76054703E+00 -1.99754067E+00  2.17045817E+00  4.76054703E+00 -1.99754067E+00
  2.17045817E+00  4.76054703E+00 -1.99754067E+00  2.17045817E+00  4.76054703E+00
 -1.99754067E+00  4.77980901E+00  2.21888240E+00  1.62602618E+00  4.77980901E+00
  2.21888240E+00  1.62602618E+00  4.77980901E+00  2.21888240E+00  1.62602618E+00
  4.77980901E+00  2.21888240E+00  1.62602618E+00  4.78087859E+00 -2.21645410E+00
  1.62631153E+00  4.78087859E+00 -2.21645410E+00  1.62631153E+00  4.78087859E+00
 -2.21645410E+00  1.62631153E+00  4.78087859E+00 -2.21645410E+00  1.62631153E+00
  2.17291103E+00 -4.75962484E+00 -1.99726855E+00  2.17291103E+00 -4.75962484E+00
 -1.99726855E+00  2.17291103E+00 -4.75962484E+00 -1.99726855E+00  2.17291103E+00
 -4.75962484E+00 -1.99726855E+00 -2.26371048E+00 -4.28827235E+00 -1.52865615E+00
 -2.26371048E+00 -4.28827235E+00 -1.52865615E+00 -2.26371048E+00 -4.28827235E+00
 -1.52865615E+00 -2.26371048E+00 -4.28827235E+00 -1.52865615E+00 -4.30782723E+00
 -2.20376648E+00  1.87912476E+00 -4.30782723E+00 -2.20376648E+00  1.87912476E+00
 -4.30782723E+00 -2.20376648E+00  1.87912476E+00 -4.30782723E+00 -2.20376648E+00
  1.87912476E+00  1.35418341E+00  3.04575096E+00 -7.65934344E-01  1.35418341E+00
  3.04575096E+00 -7.65934344E-01  1.35418341E+00  3.04575096E+00 -7.65934344E-01
  1.35418341E+00  3.04575096E+00 -7.65934344E-01  1.35418341E+00  3.04575096E+00
 -7.65934344E-01 -1.29352509E+00  2.88800041E+00 -6.60183381E-01 -1.29352509E+00
  2.88800041E+00 -6.60183381E-01 -1.29352509E+00  2.88800041E+00 -6.60183381E-01
 -1.29352509E+00  2.88800041E+00 -6.60183381E-01 -1.29352509E+00  2.88800041E+00
 -6.60183381E-01 -1.29205677E+00 -2.88853520E+00 -6.60359125E-01 -1.29205677E+00
 -2.88853520E+00 -6.60359125E-01 -1.29205677E+00 -2.88853520E+00 -6.60359125E-01
 -1.29205677E+00 -2.88853520E+00 -6.60359125E-01 -1.29205677E+00 -2.88853520E+00
 -6.60359125E-01  1.35573865E+00 -3.04517271E+00 -7.65781276E-01  1.35573865E+00
 -3.04517271E+00 -7.65781276E-01  1.35573865E+00 -3.04517271E+00 -7.65781276E-01
  1.35573865E+00 -3.04517271E+00 -7.65781276E-01  1.35573865E+00 -3.04517271E+00
 -7.65781276E-01
Num ILSW                                   I              100
ILSW                                       I   N=         100
           0           0           0           0           2           0
           0           0           0           0         402          -1
           5           0           0           0           0           0
           0           0           0           0           0           0
           1           1           0           0           0           0
           0           0      100000           0          -1           0
           0           0           0           0           0           0
           0           0           0           1           0           0
           0 -2000000000           1           0           0           0
           0           0           4          52           0           0
           0           0           5           0           0           0
           0           0           0          16           0           1
           0           0           0           0           0           0
           0           0           0           0           0           0
           0           0           0           0           0           0
           0           0           0           0           0           0
           0           0           0           0
Num RLSW                                   I               52
RLSW                                       R   N=          52
  8.00000000E-01  7.20000000E-01  1.00000000E+00  8.10000000E-01  2.00000000E-01
  0.00000000E+00  0.00000000E+00  1.00000000E+00  0.00000000E+00  0.00000000E+00
  0.00000000E+00  0.00000000E+00  1.00000000E+00  0.00000000E+00  0.00000000E+00
  0.00000000E+00  0.00000000E+00  1.00000000E+00  0.00000000E+00  0.00000000E+00
  0.00000000E+00  0.00000000E+00  1.00000000E+00  0.00000000E+00  0.00000000E+00
  0.00000000E+00  0.00000000E+00  1.00000000E+00  0.00000000E+00  0.00000000E+00
  0.00000000E+00  0.00000000E+00  1.00000000E+00  0.00000000E+00  0.00000000E+00
  0.00000000E+00  0.00000000E+00  0.00000000E+00  1.00000000E+00  1.00000000E+00
  0.00000000E+00  1.00000000E+00  0.00000000E+00  0.00000000E+00  0.00000000E+00
  0.00000000E+00  0.00000000E+00  0.00000000E+00  0.00000000E+00  0.00000000E+00
  0.00000000E+00  0.00000000E+00
MxBond                                     I                3
NBond                                      I   N=          16
           3           3           3           3           1           1
           1           1           1           1           1           1
           3           3           3           3
IBond                                      I   N=          48
           4           8          13           3           5          14
           2          12          15           1           9          16
           2           0           0          14           0           0
          13           0           0           1           0           0
           4           0           0          16           0           0
          15           0           0           3           0           0
           1           7          14           2           6          13
           3          11          16           4          10          15
RBond                                      R   N=          48
  2.00000000E+00  1.00000000E+00  1.00000000E+00  2.00000000E+00  1.00000000E+00
  1.00000000E+00  2.00000000E+00  1.00000000E+00  1.00000000E+00  2.00000000E+00
  1.00000000E+00  1.00000000E+00  1.00000000E+00  0.00000000E+00  0.00000000E+00
  1.00000000E+00  0.00000000E+00  0.00000000E+00  1.00000000E+00  0.00000000E+00
  0.00000000E+00  1.00000000E+00  0.00000000E+00  0.00000000E+00  1.00000000E+00
  0.00000000E+00  0.00000000E+00  1.00000000E+00  0.00000000E+00  0.00000000E+00
  1.00000000E+00  0.00000000E+00  0.00000000E+00  1.00000000E+00  0.00000000E+00
  0.00000000E+00  1.00000000E+00  1.00000000E+00  1.00000000E+00  1.00000000E+00
  1.00000000E+00  1.00000000E+00  1.00000000E+00  1.00000000E+00  1.00000000E+00
  1.00000000E+00  1.00000000E+00  1.00000000E+00
Virial Ratio                               R      2.004378017640001E+00
SCF Energy                                 R     -3.165738709569147E+02
Total Energy                               R     -3.165738709569147E+02
RMS Density                                R      6.635114890386032E-09
Job Status                                 I                1
Nuclear derivative order                   I                0
External E-field                           R   N=          35
  0.00000000E+00  0.00000000E+00  0.00000000E+00  0.00000000E+00  0.00000000E+00
  0.00000000E+00  0.00000000E+00  0.00000000E+00  0.00000000E+00  0.00000000E+00
  0.00000000E+00  0.00000000E+00  0.00000000E+00  0.00000000E+00  0.00000000E+00
  0.00000000E+00  0.00000000E+00  0.00000000E+00  0.00000000E+00  0.00000000E+00
  0.00000000E+00  0.00000000E+00  0.00000000E+00  0.00000000E+00  0.00000000E+00
  0.00000000E+00  0.00000000E+00  0.00000000E+00  0.00000000E+00  0.00000000E+00
  0.00000000E+00  0.00000000E+00  0.00000000E+00  0.00000000E+00  0.00000000E+00
IOpCl                                      I                0
IROHF                                      I                0
Alpha Orbital Energies                     R   N=         192
 -1.43253029E+01 -1.43252922E+01 -1.02076006E+01 -1.02067738E+01 -1.01467328E+01
 -1.01459604E+01 -6.72803186E+00 -6.72801419E+00 -9.25728240E-01 -8.96551767E-01
 -7.48797809E-01 -7.36229074E-01 -6.06111935E-01 -5.69467425E-01 -5.48451482E-01
 -5.27162368E-01 -4.97797174E-01 -4.62149337E-01 -4.34223314E-01 -4.34109758E-01
 -4.17789058E-01 -3.59261062E-01 -3.38698051E-01 -3.28237214E-01 -3.06599034E-01
 -2.94217224E-01 -2.65075326E-01 -2.28770002E-01 -4.21744246E-02  1.61905418E-02
  1.73611518E-02  3.15002417E-02  6.01828489E-02  7.90202203E-02  8.04550274E-02
  8.40378979E-02  1.16390402E-01  1.26327948E-01  1.31319869E-01  1.47734447E-01
  1.88144452E-01  2.07314877E-01  2.18004756E-01  2.28121870E-01  2.58993837E-01
  2.73194631E-01  3.13687984E-01  3.16184695E-01  3.26860382E-01  3.34252084E-01
  3.57059892E-01  3.58159720E-01  3.64221538E-01  3.85774966E-01  4.13114579E-01
  4.22249047E-01  4.25347130E-01  4.46849184E-01  4.55797596E-01  4.90806483E-01
  4.96499128E-01  5.10557958E-01  5.19107089E-01  5.32390197E-01  5.38215567E-01
  5.62679789E-01  5.67846202E-01  5.82839282E-01  6.04092076E-01  6.14828358E-01
  6.34669528E-01  6.42254998E-01  6.54207461E-01  6.90796850E-01  7.08203861E-01
  7.20840873E-01  7.48171075E-01  7.54664237E-01  7.80079594E-01  7.95549766E-01
  8.07301600E-01  8.34173617E-01  8.44226849E-01  8.65074659E-01  8.81426194E-01
  9.19703416E-01  9.85809845E-01  9.86527637E-01  1.03407061E+00  1.05173926E+00
  1.07353478E+00  1.10415509E+00  1.13507791E+00  1.15467777E+00  1.18931679E+00
  1.21035057E+00  1.23621410E+00  1.27569909E+00  1.28802810E+00  1.31915599E+00
  1.32497841E+00  1.40345676E+00  1.43623147E+00  1.43914042E+00  1.48264453E+00
  1.50883898E+00  1.51385831E+00  1.53332863E+00  1.53531415E+00  1.62000136E+00
  1.63657576E+00  1.66923757E+00  1.67129950E+00  1.69549171E+00  1.70792462E+00
  1.71678239E+00  1.73974019E+00  1.78687108E+00  1.80087001E+00  1.80495207E+00
  1.80910712E+00  1.82943259E+00  1.83697371E+00  1.87972907E+00  1.88707519E+00
  1.90903986E+00  1.92291744E+00  1.93352924E+00  1.95263238E+00  1.99099065E+00
  2.02942022E+00  2.06824836E+00  2.08700852E+00  2.13251091E+00  2.16478718E+00
  2.18083987E+00  2.22395672E+00  2.27213642E+00  2.28389520E+00  2.34302075E+00
  2.35209589E+00  2.38109518E+00  2.41754745E+00  2.43631406E+00  2.46910464E+00
  2.50086743E+00  2.50693453E+00  2.55274586E+00  2.55298474E+00  2.56756541E+00
  2.60251053E+00  2.62535141E+00  2.62634791E+00  2.66620576E+00  2.66735329E+00
  2.70024550E+00  2.72802324E+00  2.73258331E+00  2.74935683E+00  2.76630882E+00
  2.79023488E+00  2.80363255E+00  2.88638526E+00  2.90030293E+00  2.92640530E+00
  2.97738282E+00  3.01492693E+00  3.04546964E+00  3.12272765E+00  3.32031454E+00
  3.35310955E+00  3.41791555E+00  3.52511989E+00  3.56714643E+00  3.69034176E+00
  3.75887300E+00  3.78327135E+00  3.88827892E+00  4.00576413E+00  4.07304003E+00
  4.64768788E+00  4.68158058E+00  4.73797854E+00  5.03696487E+00  1.46487167E+01
  1.47591088E+01  2.36244233E+01  2.37143208E+01  2.42242225E+01  2.42518546E+01
  3.55286156E+01  3.56072573E+01
Alpha MO coefficients                      R   N=       36864
  8.25221374E-07  8.05008590E-07 -7.40302379E-05  1.88588596E-05 -4.84805055E-05
  1.51136543E-04  3.21879217E-04 -2.11662772E-04  2.26837863E-04 -2.46974328E-03
  1.09752773E-03  8.45928886E-04  1.38308742E-05  5.75458791E-05 -1.44976471E-04
 -1.02968095E-04 -2.22596896E-04  1.16911669E-04  1.44310277E-05 -3.82749886E-05
  1.11035144E-04  2.82405258E-04 -1.26855150E-04  4.62339748E-04 -7.47952514E-05
 -1.25472567E-03  1.82225601E-04  3.47391506E-03  5.08819085E-03  2.42516255E-03
 -4.40788345E-03 -2.42638311E-04  2.81990985E-04  5.18532879E-04 -4.26915952E-04
 -5.69950027E-04 -1.44312718E-05  3.94655577E-05 -1.05246463E-04  2.78629785E-04
  1.21381950E-04 -4.59352294E-04  5.89200574E-05 -1.25340171E-03 -1.66410361E-04
 -3.42308381E-03 -5.06258698E-03  2.40228922E-03  4.38296872E-03  2.42280926E-04
 -2.81555798E-04  5.08675989E-04  4.28198021E-04 -5.59041732E-04 -9.15370315E-07
 -2.51844576E-07  7.15872861E-05  1.77297950E-05  4.76093545E-05 -1.50473436E-04