Title Card Required                                                     
SP        RB3LYP                                                      6-311G(d,p)         
Number of atoms                            I               16
Info1-9                                    I   N=           9
          24          23           0           0           0         110
           1          18        -502
Full Title                                 C   N=           2
Title Card Required     
Route                                      C   N=           5
#p b3lyp/6-311g(d,p) nosymm pop=nbo density=current         
Charge                                     I                0
Multiplicity                               I                1
Number of electrons                        I               56
Number of alpha electrons                  I               28
Number of beta electrons                   I               28
Number of basis functions                  I              192
Number of independent functions            I              192
Number of point charges in /Mol/           I                0
Number of translation vectors              I                0
Atomic numbers                             I   N=          16
           6           6           1           1           1           1
           1           1           6           6           5           5
           7           1           7           1
Nuclear charges                            R   N=          16
  6.00000000E+00  6.00000000E+00  1.00000000E+00  1.00000000E+00  1.00000000E+00
  1.00000000E+00  1.00000000E+00  1.00000000E+00  6.00000000E+00  6.00000000E+00
  5.00000000E+00  5.00000000E+00  7.00000000E+00  1.00000000E+00  7.00000000E+00
  1.00000000E+00
Current cartesian coordinates              R   N=          48
  2.86566384E+00 -1.39775105E+00 -6.93297051E-01 -2.86566384E+00  1.39775105E+00
 -6.93297051E-01 -4.96620403E+00 -1.46576796E+00  1.87818557E+00 -1.57063453E+00
 -5.10482867E+00  1.43546998E+00  4.46656234E+00 -1.89064264E+00 -1.89634961E+00
  4.96620403E+00  1.46576796E+00  1.87818557E+00  1.57063453E+00  5.10482867E+00
  1.43546998E+00 -4.46656234E+00  1.89064264E+00 -1.89634961E+00  1.17910028E+00
  3.22589667E+00  7.09089493E-01 -1.17910028E+00 -3.22589667E+00  7.09089493E-01
 -2.98841100E+00 -1.17846156E+00  8.03519107E-01  2.98841100E+00  1.17846156E+00
  8.03519107E-01 -1.17910028E+00  3.18571542E+00 -5.76742523E-01 -1.62150218E+00
  4.81862965E+00 -1.49245278E+00  1.17910028E+00 -3.18571542E+00 -5.76742523E-01
  1.62150218E+00 -4.81862965E+00 -1.49245278E+00
Number of symbols in /Mol/                 I                0
Force Field                                I                0
Atom Types                                 C   N=          16
                                                            
                                                            
                                                            
            
Int Atom Types                             I   N=          16
           0           0           0           0           0           0
           0           0           0           0           0           0
           0           0           0           0
MM charges                                 R   N=          16
  0.00000000E+00  0.00000000E+00  0.00000000E+00  0.00000000E+00  0.00000000E+00
  0.00000000E+00  0.00000000E+00  0.00000000E+00  0.00000000E+00  0.00000000E+00
  0.00000000E+00  0.00000000E+00  0.00000000E+00  0.00000000E+00  0.00000000E+00
  0.00000000E+00
Integer atomic weights                     I   N=          16
          12          12           1           1           1           1
           1           1          12          12          11          11
          14           1          14           1
Real atomic weights                        R   N=          16
  1.20000000E+01  1.20000000E+01  1.00782504E+00  1.00782504E+00  1.00782504E+00
  1.00782504E+00  1.00782504E+00  1.00782504E+00  1.20000000E+01  1.20000000E+01
  1.10093053E+01  1.10093053E+01  1.40030740E+01  1.00782504E+00  1.40030740E+01
  1.00782504E+00
Atom fragment info                         I   N=          16
           0           0           0           0           0           0
           0           0           0           0           0           0
           0           0           0           0
Atom residue num                           I   N=          16
           0           0           0           0           0           0
           0           0           0           0           0           0
           0           0           0           0
Nuclear spins                              I   N=          16
           0           0           1           1           1           1
           1           1           0           0           3           3
           2           1           2           1
Nuclear ZEff                               R   N=          16
 -3.60000000E+00 -3.60000000E+00 -1.00000000E+00 -1.00000000E+00 -1.00000000E+00
 -1.00000000E+00 -1.00000000E+00 -1.00000000E+00 -3.60000000E+00 -3.60000000E+00
 -2.75000000E+00 -2.75000000E+00 -4.55000000E+00 -1.00000000E+00 -4.55000000E+00
 -1.00000000E+00
Nuclear ZNuc                               R   N=          16
  6.00000000E+00  6.00000000E+00  1.00000000E+00  1.00000000E+00  1.00000000E+00
  1.00000000E+00  1.00000000E+00  1.00000000E+00  6.00000000E+00  6.00000000E+00
  5.00000000E+00  5.00000000E+00  7.00000000E+00  1.00000000E+00  7.00000000E+00
  1.00000000E+00
Nuclear QMom                               R   N=          16
  0.00000000E+00  0.00000000E+00  0.00000000E+00  0.00000000E+00  0.00000000E+00
  0.00000000E+00  0.00000000E+00  0.00000000E+00  0.00000000E+00  0.00000000E+00
  4.05900000E+00  4.05900000E+00  2.04400000E+00  0.00000000E+00  2.04400000E+00
  0.00000000E+00
Nuclear GFac                               R   N=          16
  0.00000000E+00  0.00000000E+00  2.79284600E+00  2.79284600E+00  2.79284600E+00
  2.79284600E+00  2.79284600E+00  2.79284600E+00  0.00000000E+00  0.00000000E+00
  2.68863700E+00  2.68863700E+00  4.03761000E-01  2.79284600E+00  4.03761000E-01
  2.79284600E+00
MicOpt                                     I   N=          16
          -1          -1          -1          -1          -1          -1
          -1          -1          -1          -1          -1          -1
          -1          -1          -1          -1
Number of residues                         I                0
Number of secondary structures             I                0
Number of contracted shells                I               72
Number of primitive shells                 I              144
Pure/Cartesian d shells                    I                0
Pure/Cartesian f shells                    I                0
Highest angular momentum                   I                2
Largest degree of contraction              I                6
Shell types                                I   N=          72
           0          -1          -1          -1          -2           0
          -1          -1          -1          -2           0           0
           0           1           0           0           0           1
           0           0           0           1           0           0
           0           1           0           0           0           1
           0           0           0           1           0          -1
          -1          -1          -2           0          -1          -1
          -1          -2           0          -1          -1          -1
          -2           0          -1          -1          -1          -2
           0          -1          -1          -1          -2           0
           0           0           1           0          -1          -1
          -1          -2           0           0           0           1
Number of primitives per shell             I   N=          72
           6           3           1           1           1           6
           3           1           1           1           3           1
           1           1           3           1           1           1
           3           1           1           1           3           1
           1           1           3           1           1           1
           3           1           1           1           6           3
           1           1           1           6           3           1
           1           1           6           3           1           1
           1           6           3           1           1           1
           6           3           1           1           1           3
           1           1           1           6           3           1
           1           1           3           1           1           1
Shell to atom map                          I   N=          72
           1           1           1           1           1           2
           2           2           2           2           3           3
           3           3           4           4           4           4
           5           5           5           5           6           6
           6           6           7           7           7           7
           8           8           8           8           9           9
           9           9           9          10          10          10
          10          10          11          11          11          11
          11          12          12          12          12          12
          13          13          13          13          13          14
          14          14          14          15          15          15
          15          15          16          16          16          16
Primitive exponents                        R   N=         144
  4.56324000E+03  6.82024000E+02  1.54973000E+02  4.44553000E+01  1.30290000E+01
  1.82773000E+00  2.09642000E+01  4.80331000E+00  1.45933000E+00  4.83456000E-01
  1.45585000E-01  6.26000000E-01  4.56324000E+03  6.82024000E+02  1.54973000E+02
  4.44553000E+01  1.30290000E+01  1.82773000E+00  2.09642000E+01  4.80331000E+00
  1.45933000E+00  4.83456000E-01  1.45585000E-01  6.26000000E-01  3.38650000E+01
  5.09479000E+00  1.15879000E+00  3.25840000E-01  1.02741000E-01  7.50000000E-01
  3.38650000E+01  5.09479000E+00  1.15879000E+00  3.25840000E-01  1.02741000E-01
  7.50000000E-01  3.38650000E+01  5.09479000E+00  1.15879000E+00  3.25840000E-01
  1.02741000E-01  7.50000000E-01  3.38650000E+01  5.09479000E+00  1.15879000E+00
  3.25840000E-01  1.02741000E-01  7.50000000E-01  3.38650000E+01  5.09479000E+00
  1.15879000E+00  3.25840000E-01  1.02741000E-01  7.50000000E-01  3.38650000E+01
  5.09479000E+00  1.15879000E+00  3.25840000E-01  1.02741000E-01  7.50000000E-01
  4.56324000E+03  6.82024000E+02  1.54973000E+02  4.44553000E+01  1.30290000E+01
  1.82773000E+00  2.09642000E+01  4.80331000E+00  1.45933000E+00  4.83456000E-01
  1.45585000E-01  6.26000000E-01  4.56324000E+03  6.82024000E+02  1.54973000E+02
  4.44553000E+01  1.30290000E+01  1.82773000E+00  2.09642000E+01  4.80331000E+00
  1.45933000E+00  4.83456000E-01  1.45585000E-01  6.26000000E-01  2.85889000E+03
  4.28140000E+02  9.75282000E+01  2.79693000E+01  8.21577000E+00  1.11278000E+00
  1.32415000E+01  3.00166000E+00  9.12856000E-01  3.15454000E-01  9.88563000E-02
  4.01000000E-01  2.85889000E+03  4.28140000E+02  9.75282000E+01  2.79693000E+01
  8.21577000E+00  1.11278000E+00  1.32415000E+01  3.00166000E+00  9.12856000E-01
  3.15454000E-01  9.88563000E-02  4.01000000E-01  6.29348000E+03  9.49044000E+02
  2.18776000E+02  6.36916000E+01  1.88282000E+01  2.72023000E+00  3.06331000E+01
  7.02614000E+00  2.11205000E+00  6.84009000E-01  2.00878000E-01  9.13000000E-01
  3.38650000E+01  5.09479000E+00  1.15879000E+00  3.25840000E-01  1.02741000E-01
  7.50000000E-01  6.29348000E+03  9.49044000E+02  2.18776000E+02  6.36916000E+01
  1.88282000E+01  2.72023000E+00  3.06331000E+01  7.02614000E+00  2.11205000E+00
  6.84009000E-01  2.00878000E-01  9.13000000E-01  3.38650000E+01  5.09479000E+00
  1.15879000E+00  3.25840000E-01  1.02741000E-01  7.50000000E-01
Contraction coefficients                   R   N=         144
  1.96665025E-03  1.52306019E-02  7.61269097E-02  2.60801033E-01  6.16462078E-01
  2.21006028E-01  1.14660081E-01  9.19999648E-01 -3.03068213E-03  1.00000000E+00
  1.00000000E+00  1.00000000E+00  1.96665025E-03  1.52306019E-02  7.61269097E-02
  2.60801033E-01  6.16462078E-01  2.21006028E-01  1.14660081E-01  9.19999648E-01
 -3.03068213E-03  1.00000000E+00  1.00000000E+00  1.00000000E+00  2.54938145E-02
  1.90373109E-01  8.52161486E-01  1.00000000E+00  1.00000000E+00  1.00000000E+00
  2.54938145E-02  1.90373109E-01  8.52161486E-01  1.00000000E+00  1.00000000E+00
  1.00000000E+00  2.54938145E-02  1.90373109E-01  8.52161486E-01  1.00000000E+00
  1.00000000E+00  1.00000000E+00  2.54938145E-02  1.90373109E-01  8.52161486E-01
  1.00000000E+00  1.00000000E+00  1.00000000E+00  2.54938145E-02  1.90373109E-01
  8.52161486E-01  1.00000000E+00  1.00000000E+00  1.00000000E+00  2.54938145E-02
  1.90373109E-01  8.52161486E-01  1.00000000E+00  1.00000000E+00  1.00000000E+00
  1.96665025E-03  1.52306019E-02  7.61269097E-02  2.60801033E-01  6.16462078E-01
  2.21006028E-01  1.14660081E-01  9.19999648E-01 -3.03068213E-03  1.00000000E+00
  1.00000000E+00  1.00000000E+00  1.96665025E-03  1.52306019E-02  7.61269097E-02
  2.60801033E-01  6.16462078E-01  2.21006028E-01  1.14660081E-01  9.19999648E-01
 -3.03068213E-03  1.00000000E+00  1.00000000E+00  1.00000000E+00  2.15374907E-03
  1.65822928E-02  8.21869644E-02  2.76617880E-01  6.29315727E-01  1.73769925E-01
  1.17442942E-01  9.18001549E-01 -2.65104870E-03  1.00000000E+00  1.00000000E+00
  1.00000000E+00  2.15374907E-03  1.65822928E-02  8.21869644E-02  2.76617880E-01
  6.29315727E-01  1.73769925E-01  1.17442942E-01  9.18001549E-01 -2.65104870E-03
  1.00000000E+00  1.00000000E+00  1.00000000E+00  1.96978815E-03  1.49612859E-02
  7.35005308E-02  2.48936766E-01  6.02459433E-01  2.56201759E-01  1.11906080E-01
  9.21666655E-01 -2.56919183E-03  1.00000000E+00  1.00000000E+00  1.00000000E+00
  2.54938145E-02  1.90373109E-01  8.52161486E-01  1.00000000E+00  1.00000000E+00
  1.00000000E+00  1.96978815E-03  1.49612859E-02  7.35005308E-02  2.48936766E-01
  6.02459433E-01  2.56201759E-01  1.11906080E-01  9.21666655E-01 -2.56919183E-03
  1.00000000E+00  1.00000000E+00  1.00000000E+00  2.54938145E-02  1.90373109E-01
  8.52161486E-01  1.00000000E+00  1.00000000E+00  1.00000000E+00
P(S=P) Contraction coefficients            R   N=         144
  0.00000000E+00  0.00000000E+00  0.00000000E+00  0.00000000E+00  0.00000000E+00
  0.00000000E+00  4.02486927E-02  2.37593957E-01  8.15853851E-01  1.00000000E+00
  1.00000000E+00  0.00000000E+00  0.00000000E+00  0.00000000E+00  0.00000000E+00
  0.00000000E+00  0.00000000E+00  0.00000000E+00  4.02486927E-02  2.37593957E-01
  8.15853851E-01  1.00000000E+00  1.00000000E+00  0.00000000E+00  0.00000000E+00
  0.00000000E+00  0.00000000E+00  0.00000000E+00  0.00000000E+00  0.00000000E+00
  0.00000000E+00  0.00000000E+00  0.00000000E+00  0.00000000E+00  0.00000000E+00
  0.00000000E+00  0.00000000E+00  0.00000000E+00  0.00000000E+00  0.00000000E+00
  0.00000000E+00  0.00000000E+00  0.00000000E+00  0.00000000E+00  0.00000000E+00
  0.00000000E+00  0.00000000E+00  0.00000000E+00  0.00000000E+00  0.00000000E+00
  0.00000000E+00  0.00000000E+00  0.00000000E+00  0.00000000E+00  0.00000000E+00
  0.00000000E+00  0.00000000E+00  0.00000000E+00  0.00000000E+00  0.00000000E+00
  0.00000000E+00  0.00000000E+00  0.00000000E+00  0.00000000E+00  0.00000000E+00
  0.00000000E+00  4.02486927E-02  2.37593957E-01  8.15853851E-01  1.00000000E+00
  1.00000000E+00  0.00000000E+00  0.00000000E+00  0.00000000E+00  0.00000000E+00
  0.00000000E+00  0.00000000E+00  0.00000000E+00  4.02486927E-02  2.37593957E-01
  8.15853851E-01  1.00000000E+00  1.00000000E+00  0.00000000E+00  0.00000000E+00
  0.00000000E+00  0.00000000E+00  0.00000000E+00  0.00000000E+00  0.00000000E+00
  4.18099989E-02  2.36574994E-01  8.16213978E-01  1.00000000E+00  1.00000000E+00
  0.00000000E+00  0.00000000E+00  0.00000000E+00  0.00000000E+00  0.00000000E+00
  0.00000000E+00  0.00000000E+00  4.18099989E-02  2.36574994E-01  8.16213978E-01
  1.00000000E+00  1.00000000E+00  0.00000000E+00  0.00000000E+00  0.00000000E+00
  0.00000000E+00  0.00000000E+00  0.00000000E+00  0.00000000E+00  3.83119186E-02
  2.37403116E-01  8.17592398E-01  1.00000000E+00  1.00000000E+00  0.00000000E+00
  0.00000000E+00  0.00000000E+00  0.00000000E+00  0.00000000E+00  0.00000000E+00
  0.00000000E+00  0.00000000E+00  0.00000000E+00  0.00000000E+00  0.00000000E+00
  0.00000000E+00  0.00000000E+00  3.83119186E-02  2.37403116E-01  8.17592398E-01
  1.00000000E+00  1.00000000E+00  0.00000000E+00  0.00000000E+00  0.00000000E+00
  0.00000000E+00  0.00000000E+00  0.00000000E+00  0.00000000E+00
Coordinates of each shell                  R   N=         216
  2.86566384E+00 -1.39775105E+00 -6.93297051E-01  2.86566384E+00 -1.39775105E+00
 -6.93297051E-01  2.86566384E+00 -1.39775105E+00 -6.93297051E-01  2.86566384E+00
 -1.39775105E+00 -6.93297051E-01  2.86566384E+00 -1.39775105E+00 -6.93297051E-01
 -2.86566384E+00  1.39775105E+00 -6.93297051E-01 -2.86566384E+00  1.39775105E+00
 -6.93297051E-01 -2.86566384E+00  1.39775105E+00 -6.93297051E-01 -2.86566384E+00
  1.39775105E+00 -6.93297051E-01 -2.86566384E+00  1.39775105E+00 -6.93297051E-01
 -4.96620403E+00 -1.46576796E+00  1.87818557E+00 -4.96620403E+00 -1.46576796E+00
  1.87818557E+00 -4.96620403E+00 -1.46576796E+00  1.87818557E+00 -4.96620403E+00
 -1.46576796E+00  1.87818557E+00 -1.57063453E+00 -5.10482867E+00  1.43546998E+00
 -1.57063453E+00 -5.10482867E+00  1.43546998E+00 -1.57063453E+00 -5.10482867E+00
  1.43546998E+00 -1.57063453E+00 -5.10482867E+00  1.43546998E+00  4.46656234E+00
 -1.89064264E+00 -1.89634961E+00  4.46656234E+00 -1.89064264E+00 -1.89634961E+00
  4.46656234E+00 -1.89064264E+00 -1.89634961E+00  4.46656234E+00 -1.89064264E+00
 -1.89634961E+00  4.96620403E+00  1.46576796E+00  1.87818557E+00  4.96620403E+00
  1.46576796E+00  1.87818557E+00  4.96620403E+00  1.46576796E+00  1.87818557E+00
  4.96620403E+00  1.46576796E+00  1.87818557E+00  1.57063453E+00  5.10482867E+00
  1.43546998E+00  1.57063453E+00  5.10482867E+00  1.43546998E+00  1.57063453E+00
  5.10482867E+00  1.43546998E+00  1.57063453E+00  5.10482867E+00  1.43546998E+00
 -4.46656234E+00  1.89064264E+00 -1.89634961E+00 -4.46656234E+00  1.89064264E+00
 -1.89634961E+00 -4.46656234E+00  1.89064264E+00 -1.89634961E+00 -4.46656234E+00
  1.89064264E+00 -1.89634961E+00  1.17910028E+00  3.22589667E+00  7.09089493E-01
  1.17910028E+00  3.22589667E+00  7.09089493E-01  1.17910028E+00  3.22589667E+00
  7.09089493E-01  1.17910028E+00  3.22589667E+00  7.09089493E-01  1.17910028E+00
  3.22589667E+00  7.09089493E-01 -1.17910028E+00 -3.22589667E+00  7.09089493E-01
 -1.17910028E+00 -3.22589667E+00  7.09089493E-01 -1.17910028E+00 -3.22589667E+00
  7.09089493E-01 -1.17910028E+00 -3.22589667E+00  7.09089493E-01 -1.17910028E+00
 -3.22589667E+00  7.09089493E-01 -2.98841100E+00 -1.17846156E+00  8.03519107E-01
 -2.98841100E+00 -1.17846156E+00  8.03519107E-01 -2.98841100E+00 -1.17846156E+00
  8.03519107E-01 -2.98841100E+00 -1.17846156E+00  8.03519107E-01 -2.98841100E+00
 -1.17846156E+00  8.03519107E-01  2.98841100E+00  1.17846156E+00  8.03519107E-01
  2.98841100E+00  1.17846156E+00  8.03519107E-01  2.98841100E+00  1.17846156E+00
  8.03519107E-01  2.98841100E+00  1.17846156E+00  8.03519107E-01  2.98841100E+00
  1.17846156E+00  8.03519107E-01 -1.17910028E+00  3.18571542E+00 -5.76742523E-01
 -1.17910028E+00  3.18571542E+00 -5.76742523E-01 -1.17910028E+00  3.18571542E+00
 -5.76742523E-01 -1.17910028E+00  3.18571542E+00 -5.76742523E-01 -1.17910028E+00
  3.18571542E+00 -5.76742523E-01 -1.62150218E+00  4.81862965E+00 -1.49245278E+00
 -1.62150218E+00  4.81862965E+00 -1.49245278E+00 -1.62150218E+00  4.81862965E+00
 -1.49245278E+00 -1.62150218E+00  4.81862965E+00 -1.49245278E+00  1.17910028E+00
 -3.18571542E+00 -5.76742523E-01  1.17910028E+00 -3.18571542E+00 -5.76742523E-01
  1.17910028E+00 -3.18571542E+00 -5.76742523E-01  1.17910028E+00 -3.18571542E+00
 -5.76742523E-01  1.17910028E+00 -3.18571542E+00 -5.76742523E-01  1.62150218E+00
 -4.81862965E+00 -1.49245278E+00  1.62150218E+00 -4.81862965E+00 -1.49245278E+00
  1.62150218E+00 -4.81862965E+00 -1.49245278E+00  1.62150218E+00 -4.81862965E+00
 -1.49245278E+00
Num ILSW                                   I              100
ILSW                                       I   N=         100
           0           0           0           0           2           0
           0           0           0           0         402          -1
           5           0           0           0           0           0
           0           0           0           0           0           0
           1           1           0           0           0           0
           0           0      100000           0          -1           0
           0           0           0           0           0           0
           0           0           0           1           0           0
           0 -2000000000           1           0           0           0
           0           0           4          52           0           0
           0           0           5           0           0           0
           0           0           0          16           0           1
           0           0           0           0           0           0
           0           0           0           0           0           0
           0           0           0           0           0           0
           0           0           0           0           0           0
           0           0           0           0
Num RLSW                                   I               52
RLSW                                       R   N=          52
  8.00000000E-01  7.20000000E-01  1.00000000E+00  8.10000000E-01  2.00000000E-01
  0.00000000E+00  0.00000000E+00  1.00000000E+00  0.00000000E+00  0.00000000E+00
  0.00000000E+00  0.00000000E+00  1.00000000E+00  0.00000000E+00  0.00000000E+00
  0.00000000E+00  0.00000000E+00  1.00000000E+00  0.00000000E+00  0.00000000E+00
  0.00000000E+00  0.00000000E+00  1.00000000E+00  0.00000000E+00  0.00000000E+00
  0.00000000E+00  0.00000000E+00  1.00000000E+00  0.00000000E+00  0.00000000E+00
  0.00000000E+00  0.00000000E+00  1.00000000E+00  0.00000000E+00  0.00000000E+00
  0.00000000E+00  0.00000000E+00  0.00000000E+00  1.00000000E+00  1.00000000E+00
  0.00000000E+00  1.00000000E+00  0.00000000E+00  0.00000000E+00  0.00000000E+00
  0.00000000E+00  0.00000000E+00  0.00000000E+00  0.00000000E+00  0.00000000E+00
  0.00000000E+00  0.00000000E+00
MxBond                                     I                3
NBond                                      I   N=          16
           3           3           1           1           1           1
           1           1           3           3           3           3
           3           1           3           1
IBond                                      I   N=          48
           5          12          15           8          11          13
          11           0           0          10           0           0
           1           0           0          12           0           0
           9           0           0           2           0           0
           7          12          13           4          11          15
           2           3          10           1           6           9
           2           9          14          13           0           0
           1          10          16          15           0           0
RBond                                      R   N=          48
  1.00000000E+00  1.00000000E+00  2.00000000E+00  1.00000000E+00  1.00000000E+00
  2.00000000E+00  1.00000000E+00  0.00000000E+00  0.00000000E+00  1.00000000E+00
  0.00000000E+00  0.00000000E+00  1.00000000E+00  0.00000000E+00  0.00000000E+00
  1.00000000E+00  0.00000000E+00  0.00000000E+00  1.00000000E+00  0.00000000E+00
  0.00000000E+00  1.00000000E+00  0.00000000E+00  0.00000000E+00  1.00000000E+00
  2.00000000E+00  1.00000000E+00  1.00000000E+00  2.00000000E+00  1.00000000E+00
  1.00000000E+00  1.00000000E+00  2.00000000E+00  1.00000000E+00  1.00000000E+00
  2.00000000E+00  2.00000000E+00  1.00000000E+00  1.00000000E+00  1.00000000E+00
  0.00000000E+00  0.00000000E+00  2.00000000E+00  1.00000000E+00  1.00000000E+00
  1.00000000E+00  0.00000000E+00  0.00000000E+00
Virial Ratio                               R      2.004351798434366E+00
SCF Energy                                 R     -3.164480477440022E+02
Total Energy                               R     -3.164480477440022E+02
RMS Density                                R      4.224091249953902E-09
Job Status                                 I                1
Nuclear derivative order                   I                0
External E-field                           R   N=          35
  0.00000000E+00  0.00000000E+00  0.00000000E+00  0.00000000E+00  0.00000000E+00
  0.00000000E+00  0.00000000E+00  0.00000000E+00  0.00000000E+00  0.00000000E+00
  0.00000000E+00  0.00000000E+00  0.00000000E+00  0.00000000E+00  0.00000000E+00
  0.00000000E+00  0.00000000E+00  0.00000000E+00  0.00000000E+00  0.00000000E+00
  0.00000000E+00  0.00000000E+00  0.00000000E+00  0.00000000E+00  0.00000000E+00
  0.00000000E+00  0.00000000E+00  0.00000000E+00  0.00000000E+00  0.00000000E+00
  0.00000000E+00  0.00000000E+00  0.00000000E+00  0.00000000E+00  0.00000000E+00
IOpCl                                      I                0
IROHF                                      I                0
Alpha Orbital Energies                     R   N=         192
 -1.44006542E+01 -1.44006530E+01 -1.02208787E+01 -1.02208736E+01 -1.01515196E+01
 -1.01515182E+01 -6.68402376E+00 -6.68402334E+00 -9.85516901E-01 -9.80890002E-01
 -7.29593634E-01 -7.15563145E-01 -6.45907117E-01 -6.06676681E-01 -5.51378183E-01
 -5.40783071E-01 -5.16577985E-01 -4.63691407E-01 -4.41843707E-01 -4.31152562E-01
 -4.20746349E-01 -3.75856981E-01 -3.38094799E-01 -3.32212292E-01 -3.21112167E-01
 -3.11873439E-01 -2.08719277E-01 -1.86943283E-01 -8.47934884E-02 -1.98202138E-02
  1.16657086E-02  1.37641846E-02  6.14051914E-02  7.74255237E-02  7.93469169E-02
  9.67859101E-02  1.08817812E-01  1.14554811E-01  1.47119453E-01  1.50779373E-01
  1.72273047E-01  2.21941256E-01  2.25818016E-01  2.55894935E-01  2.66759534E-01
  2.69316787E-01  2.74000282E-01  3.17021596E-01  3.20510916E-01  3.28026044E-01
  3.52099760E-01  3.59911046E-01  3.62603522E-01  3.65451303E-01  4.01744119E-01
  4.06151347E-01  4.18594057E-01  4.39150449E-01  4.82349972E-01  4.86815542E-01
  4.96524476E-01  5.01160787E-01  5.13941971E-01  5.37065580E-01  5.43106128E-01
  5.45440284E-01  5.59214319E-01  5.64339861E-01  5.76987116E-01  5.79787372E-01
  6.07396862E-01  6.23598476E-01  6.36414133E-01  6.75993477E-01  6.87384329E-01
  7.06019038E-01  7.32291956E-01  7.39468319E-01  7.58013084E-01  7.85771284E-01
  8.25740685E-01  8.39835342E-01  8.80589856E-01  8.97262931E-01  9.14727168E-01
  9.22164577E-01  9.91688627E-01  1.00578351E+00  1.01342645E+00  1.04045685E+00
  1.07993521E+00  1.12285534E+00  1.13651963E+00  1.14246876E+00  1.22808473E+00
  1.23275382E+00  1.25629086E+00  1.26168152E+00  1.27582191E+00  1.30195307E+00
  1.32106373E+00  1.33908714E+00  1.45799615E+00  1.45861999E+00  1.46908108E+00
  1.50946131E+00  1.52913142E+00  1.53153559E+00  1.57295410E+00  1.57309712E+00
  1.59546492E+00  1.63573421E+00  1.65162807E+00  1.68288563E+00  1.69118672E+00
  1.71376999E+00  1.72850819E+00  1.74316648E+00  1.77456022E+00  1.77546542E+00
  1.80332924E+00  1.80513018E+00  1.83751141E+00  1.86174868E+00  1.88468765E+00
  1.91837171E+00  1.92137699E+00  1.94199073E+00  1.97202217E+00  1.97422278E+00
  2.00379068E+00  2.03610009E+00  2.04116088E+00  2.05950534E+00  2.08194736E+00
  2.10539987E+00  2.15738507E+00  2.18654291E+00  2.21531608E+00  2.29616683E+00
  2.35657163E+00  2.36767769E+00  2.38733493E+00  2.44801306E+00  2.46003972E+00
  2.49693956E+00  2.51549685E+00  2.51791447E+00  2.52262029E+00  2.57109092E+00
  2.58812833E+00  2.60714057E+00  2.61055350E+00  2.64568408E+00  2.66227733E+00
  2.68614797E+00  2.69218243E+00  2.71012120E+00  2.76536102E+00  2.78208187E+00
  2.78286191E+00  2.82064676E+00  2.85481035E+00  2.88039064E+00  2.89785214E+00
  2.94297828E+00  2.97202109E+00  2.98456887E+00  3.18943505E+00  3.32744070E+00
  3.47172651E+00  3.56428372E+00  3.60041786E+00  3.64657483E+00  3.66339281E+00
  3.69998578E+00  3.77534736E+00  3.78780148E+00  3.79353014E+00  3.82804464E+00
  4.73580119E+00  4.73957393E+00  4.91643764E+00  5.00518728E+00  1.47290439E+01
  1.47514933E+01  2.38138260E+01  2.38878255E+01  2.39009878E+01  2.39499369E+01
  3.55512686E+01  3.55559974E+01
Alpha MO coefficients                      R   N=       36864
 -1.58483115E-05  1.57374345E-04 -2.70034192E-04 -2.34047357E-04  2.16764945E-05
 -3.20971927E-04  1.08617612E-03  8.15303188E-04 -1.76640610E-04  4.14006219E-03
 -2.77097460E-03 -2.93734071E-04  1.24492980E-03  4.89058875E-04 -2.50552680E-04
  1.55999454E-04  2.28504157E-04 -8.60326327E-04 -1.58483115E-05  1.57374345E-04
  2.70034192E-04  2.34047356E-04  2.16764945E-05 -3.20971927E-04 -1.08617612E-03
 -8.15303186E-04 -1.76640610E-04  4.14006219E-03  2.77097460E-03  2.93734069E-04
  1.24492980E-03  4.89058874E-04  2.50552680E-04 -1.55999454E-04  2.28504157E-04
 -8.60326326E-04  2.71456346E-05 -6.15737872E-04 -7.55714968E-04 -1.36101568E-04
  5.57049111E-05  1.02013872E-04 -1.76756176E-04  1.63645451E-04  3.28456203E-04
 -1.76442416E-04 -1.21367294E-04  8.29598989E-05 -2.42498493E-04 -8.14541689E-05
  7.62257218E-04  3.39433806E-04  6.10049994E-06 -1.78433370E-04  2.71456345E-05
 -6.15737871E-04 -7.55714968E-04  1.36101568E-04 -5.57049111E-05  1.02013872E-04