Title Card Required                                                     
SP        UB3LYP                                                      6-311G(d,p)         
Number of atoms                            I               16
Info1-9                                    I   N=           9
          25          23           0           0           0         110
           1          18        -502
Full Title                                 C   N=           2
Title Card Required     
Route                                      C   N=           4
#p ub3lyp/6-311g(d,p) nosymm density=current    
Charge                                     I                0
Multiplicity                               I                3
Number of electrons                        I               56
Number of alpha electrons                  I               29
Number of beta electrons                   I               27
Number of basis functions                  I              192
Number of independent functions            I              192
Number of point charges in /Mol/           I                0
Number of translation vectors              I                0
Atomic numbers                             I   N=          16
           6           6           1           1           1           1
           1           1           6           6           5           5
           7           1           7           1
Nuclear charges                            R   N=          16
  6.00000000E+00  6.00000000E+00  1.00000000E+00  1.00000000E+00  1.00000000E+00
  1.00000000E+00  1.00000000E+00  1.00000000E+00  6.00000000E+00  6.00000000E+00
  5.00000000E+00  5.00000000E+00  7.00000000E+00  1.00000000E+00  7.00000000E+00
  1.00000000E+00
Current cartesian coordinates              R   N=          48
  9.17594314E-02 -3.54538888E+00  0.00000000E+00 -9.17594314E-02  3.54538888E+00
  0.00000000E+00  4.15225931E+00  3.92615925E+00  1.88972612E-06  5.58394606E+00
 -4.41381441E-01  0.00000000E+00  1.28365316E-01 -5.59988968E+00  0.00000000E+00
 -4.15225931E+00 -3.92615925E+00  1.88972612E-06 -5.58394606E+00  4.41381441E-01
  0.00000000E+00 -1.28365316E-01  5.59988968E+00  0.00000000E+00 -3.53470815E+00
  2.89918003E-01  0.00000000E+00  3.53470815E+00 -2.89918003E-01  0.00000000E+00
  2.50584298E+00  2.36939153E+00  1.88972612E-06 -2.50584298E+00 -2.36939153E+00
  1.88972612E-06 -2.50584298E+00  2.65014814E+00  0.00000000E+00 -3.82038183E+00
  4.04039130E+00 -1.88972612E-06  2.50584298E+00 -2.65014814E+00  0.00000000E+00
  3.82038183E+00 -4.04039130E+00 -1.88972612E-06
Number of symbols in /Mol/                 I                0
Force Field                                I                0
Atom Types                                 C   N=          16
                                                            
                                                            
                                                            
            
Int Atom Types                             I   N=          16
           0           0           0           0           0           0
           0           0           0           0           0           0
           0           0           0           0
MM charges                                 R   N=          16
  0.00000000E+00  0.00000000E+00  0.00000000E+00  0.00000000E+00  0.00000000E+00
  0.00000000E+00  0.00000000E+00  0.00000000E+00  0.00000000E+00  0.00000000E+00
  0.00000000E+00  0.00000000E+00  0.00000000E+00  0.00000000E+00  0.00000000E+00
  0.00000000E+00
Integer atomic weights                     I   N=          16
          12          12           1           1           1           1
           1           1          12          12          11          11
          14           1          14           1
Real atomic weights                        R   N=          16
  1.20000000E+01  1.20000000E+01  1.00782504E+00  1.00782504E+00  1.00782504E+00
  1.00782504E+00  1.00782504E+00  1.00782504E+00  1.20000000E+01  1.20000000E+01
  1.10093053E+01  1.10093053E+01  1.40030740E+01  1.00782504E+00  1.40030740E+01
  1.00782504E+00
Atom fragment info                         I   N=          16
           0           0           0           0           0           0
           0           0           0           0           0           0
           0           0           0           0
Atom residue num                           I   N=          16
           0           0           0           0           0           0
           0           0           0           0           0           0
           0           0           0           0
Nuclear spins                              I   N=          16
           0           0           1           1           1           1
           1           1           0           0           3           3
           2           1           2           1
Nuclear ZEff                               R   N=          16
 -3.60000000E+00 -3.60000000E+00 -1.00000000E+00 -1.00000000E+00 -1.00000000E+00
 -1.00000000E+00 -1.00000000E+00 -1.00000000E+00 -3.60000000E+00 -3.60000000E+00
 -2.75000000E+00 -2.75000000E+00 -4.55000000E+00 -1.00000000E+00 -4.55000000E+00
 -1.00000000E+00
Nuclear ZNuc                               R   N=          16
  6.00000000E+00  6.00000000E+00  1.00000000E+00  1.00000000E+00  1.00000000E+00
  1.00000000E+00  1.00000000E+00  1.00000000E+00  6.00000000E+00  6.00000000E+00
  5.00000000E+00  5.00000000E+00  7.00000000E+00  1.00000000E+00  7.00000000E+00
  1.00000000E+00
Nuclear QMom                               R   N=          16
  0.00000000E+00  0.00000000E+00  0.00000000E+00  0.00000000E+00  0.00000000E+00
  0.00000000E+00  0.00000000E+00  0.00000000E+00  0.00000000E+00  0.00000000E+00
  4.05900000E+00  4.05900000E+00  2.04400000E+00  0.00000000E+00  2.04400000E+00
  0.00000000E+00
Nuclear GFac                               R   N=          16
  0.00000000E+00  0.00000000E+00  2.79284600E+00  2.79284600E+00  2.79284600E+00
  2.79284600E+00  2.79284600E+00  2.79284600E+00  0.00000000E+00  0.00000000E+00
  2.68863700E+00  2.68863700E+00  4.03761000E-01  2.79284600E+00  4.03761000E-01
  2.79284600E+00
MicOpt                                     I   N=          16
          -1          -1          -1          -1          -1          -1
          -1          -1          -1          -1          -1          -1
          -1          -1          -1          -1
Number of residues                         I                0
Number of secondary structures             I                0
Number of contracted shells                I               72
Number of primitive shells                 I              144
Pure/Cartesian d shells                    I                0
Pure/Cartesian f shells                    I                0
Highest angular momentum                   I                2
Largest degree of contraction              I                6
Shell types                                I   N=          72
           0          -1          -1          -1          -2           0
          -1          -1          -1          -2           0           0
           0           1           0           0           0           1
           0           0           0           1           0           0
           0           1           0           0           0           1
           0           0           0           1           0          -1
          -1          -1          -2           0          -1          -1
          -1          -2           0          -1          -1          -1
          -2           0          -1          -1          -1          -2
           0          -1          -1          -1          -2           0
           0           0           1           0          -1          -1
          -1          -2           0           0           0           1
Number of primitives per shell             I   N=          72
           6           3           1           1           1           6
           3           1           1           1           3           1
           1           1           3           1           1           1
           3           1           1           1           3           1
           1           1           3           1           1           1
           3           1           1           1           6           3
           1           1           1           6           3           1
           1           1           6           3           1           1
           1           6           3           1           1           1
           6           3           1           1           1           3
           1           1           1           6           3           1
           1           1           3           1           1           1
Shell to atom map                          I   N=          72
           1           1           1           1           1           2
           2           2           2           2           3           3
           3           3           4           4           4           4
           5           5           5           5           6           6
           6           6           7           7           7           7
           8           8           8           8           9           9
           9           9           9          10          10          10
          10          10          11          11          11          11
          11          12          12          12          12          12
          13          13          13          13          13          14
          14          14          14          15          15          15
          15          15          16          16          16          16
Primitive exponents                        R   N=         144
  4.56324000E+03  6.82024000E+02  1.54973000E+02  4.44553000E+01  1.30290000E+01
  1.82773000E+00  2.09642000E+01  4.80331000E+00  1.45933000E+00  4.83456000E-01
  1.45585000E-01  6.26000000E-01  4.56324000E+03  6.82024000E+02  1.54973000E+02
  4.44553000E+01  1.30290000E+01  1.82773000E+00  2.09642000E+01  4.80331000E+00
  1.45933000E+00  4.83456000E-01  1.45585000E-01  6.26000000E-01  3.38650000E+01
  5.09479000E+00  1.15879000E+00  3.25840000E-01  1.02741000E-01  7.50000000E-01
  3.38650000E+01  5.09479000E+00  1.15879000E+00  3.25840000E-01  1.02741000E-01
  7.50000000E-01  3.38650000E+01  5.09479000E+00  1.15879000E+00  3.25840000E-01
  1.02741000E-01  7.50000000E-01  3.38650000E+01  5.09479000E+00  1.15879000E+00
  3.25840000E-01  1.02741000E-01  7.50000000E-01  3.38650000E+01  5.09479000E+00
  1.15879000E+00  3.25840000E-01  1.02741000E-01  7.50000000E-01  3.38650000E+01
  5.09479000E+00  1.15879000E+00  3.25840000E-01  1.02741000E-01  7.50000000E-01
  4.56324000E+03  6.82024000E+02  1.54973000E+02  4.44553000E+01  1.30290000E+01
  1.82773000E+00  2.09642000E+01  4.80331000E+00  1.45933000E+00  4.83456000E-01
  1.45585000E-01  6.26000000E-01  4.56324000E+03  6.82024000E+02  1.54973000E+02
  4.44553000E+01  1.30290000E+01  1.82773000E+00  2.09642000E+01  4.80331000E+00
  1.45933000E+00  4.83456000E-01  1.45585000E-01  6.26000000E-01  2.85889000E+03
  4.28140000E+02  9.75282000E+01  2.79693000E+01  8.21577000E+00  1.11278000E+00
  1.32415000E+01  3.00166000E+00  9.12856000E-01  3.15454000E-01  9.88563000E-02
  4.01000000E-01  2.85889000E+03  4.28140000E+02  9.75282000E+01  2.79693000E+01
  8.21577000E+00  1.11278000E+00  1.32415000E+01  3.00166000E+00  9.12856000E-01
  3.15454000E-01  9.88563000E-02  4.01000000E-01  6.29348000E+03  9.49044000E+02
  2.18776000E+02  6.36916000E+01  1.88282000E+01  2.72023000E+00  3.06331000E+01
  7.02614000E+00  2.11205000E+00  6.84009000E-01  2.00878000E-01  9.13000000E-01
  3.38650000E+01  5.09479000E+00  1.15879000E+00  3.25840000E-01  1.02741000E-01
  7.50000000E-01  6.29348000E+03  9.49044000E+02  2.18776000E+02  6.36916000E+01
  1.88282000E+01  2.72023000E+00  3.06331000E+01  7.02614000E+00  2.11205000E+00
  6.84009000E-01  2.00878000E-01  9.13000000E-01  3.38650000E+01  5.09479000E+00
  1.15879000E+00  3.25840000E-01  1.02741000E-01  7.50000000E-01
Contraction coefficients                   R   N=         144
  1.96665025E-03  1.52306019E-02  7.61269097E-02  2.60801033E-01  6.16462078E-01
  2.21006028E-01  1.14660081E-01  9.19999648E-01 -3.03068213E-03  1.00000000E+00
  1.00000000E+00  1.00000000E+00  1.96665025E-03  1.52306019E-02  7.61269097E-02
  2.60801033E-01  6.16462078E-01  2.21006028E-01  1.14660081E-01  9.19999648E-01
 -3.03068213E-03  1.00000000E+00  1.00000000E+00  1.00000000E+00  2.54938145E-02
  1.90373109E-01  8.52161486E-01  1.00000000E+00  1.00000000E+00  1.00000000E+00
  2.54938145E-02  1.90373109E-01  8.52161486E-01  1.00000000E+00  1.00000000E+00
  1.00000000E+00  2.54938145E-02  1.90373109E-01  8.52161486E-01  1.00000000E+00
  1.00000000E+00  1.00000000E+00  2.54938145E-02  1.90373109E-01  8.52161486E-01
  1.00000000E+00  1.00000000E+00  1.00000000E+00  2.54938145E-02  1.90373109E-01
  8.52161486E-01  1.00000000E+00  1.00000000E+00  1.00000000E+00  2.54938145E-02
  1.90373109E-01  8.52161486E-01  1.00000000E+00  1.00000000E+00  1.00000000E+00
  1.96665025E-03  1.52306019E-02  7.61269097E-02  2.60801033E-01  6.16462078E-01
  2.21006028E-01  1.14660081E-01  9.19999648E-01 -3.03068213E-03  1.00000000E+00
  1.00000000E+00  1.00000000E+00  1.96665025E-03  1.52306019E-02  7.61269097E-02
  2.60801033E-01  6.16462078E-01  2.21006028E-01  1.14660081E-01  9.19999648E-01
 -3.03068213E-03  1.00000000E+00  1.00000000E+00  1.00000000E+00  2.15374907E-03
  1.65822928E-02  8.21869644E-02  2.76617880E-01  6.29315727E-01  1.73769925E-01
  1.17442942E-01  9.18001549E-01 -2.65104870E-03  1.00000000E+00  1.00000000E+00
  1.00000000E+00  2.15374907E-03  1.65822928E-02  8.21869644E-02  2.76617880E-01
  6.29315727E-01  1.73769925E-01  1.17442942E-01  9.18001549E-01 -2.65104870E-03
  1.00000000E+00  1.00000000E+00  1.00000000E+00  1.96978815E-03  1.49612859E-02
  7.35005308E-02  2.48936766E-01  6.02459433E-01  2.56201759E-01  1.11906080E-01
  9.21666655E-01 -2.56919183E-03  1.00000000E+00  1.00000000E+00  1.00000000E+00
  2.54938145E-02  1.90373109E-01  8.52161486E-01  1.00000000E+00  1.00000000E+00
  1.00000000E+00  1.96978815E-03  1.49612859E-02  7.35005308E-02  2.48936766E-01
  6.02459433E-01  2.56201759E-01  1.11906080E-01  9.21666655E-01 -2.56919183E-03
  1.00000000E+00  1.00000000E+00  1.00000000E+00  2.54938145E-02  1.90373109E-01
  8.52161486E-01  1.00000000E+00  1.00000000E+00  1.00000000E+00
P(S=P) Contraction coefficients            R   N=         144
  0.00000000E+00  0.00000000E+00  0.00000000E+00  0.00000000E+00  0.00000000E+00
  0.00000000E+00  4.02486927E-02  2.37593957E-01  8.15853851E-01  1.00000000E+00
  1.00000000E+00  0.00000000E+00  0.00000000E+00  0.00000000E+00  0.00000000E+00
  0.00000000E+00  0.00000000E+00  0.00000000E+00  4.02486927E-02  2.37593957E-01
  8.15853851E-01  1.00000000E+00  1.00000000E+00  0.00000000E+00  0.00000000E+00
  0.00000000E+00  0.00000000E+00  0.00000000E+00  0.00000000E+00  0.00000000E+00
  0.00000000E+00  0.00000000E+00  0.00000000E+00  0.00000000E+00  0.00000000E+00
  0.00000000E+00  0.00000000E+00  0.00000000E+00  0.00000000E+00  0.00000000E+00
  0.00000000E+00  0.00000000E+00  0.00000000E+00  0.00000000E+00  0.00000000E+00
  0.00000000E+00  0.00000000E+00  0.00000000E+00  0.00000000E+00  0.00000000E+00
  0.00000000E+00  0.00000000E+00  0.00000000E+00  0.00000000E+00  0.00000000E+00
  0.00000000E+00  0.00000000E+00  0.00000000E+00  0.00000000E+00  0.00000000E+00
  0.00000000E+00  0.00000000E+00  0.00000000E+00  0.00000000E+00  0.00000000E+00
  0.00000000E+00  4.02486927E-02  2.37593957E-01  8.15853851E-01  1.00000000E+00
  1.00000000E+00  0.00000000E+00  0.00000000E+00  0.00000000E+00  0.00000000E+00
  0.00000000E+00  0.00000000E+00  0.00000000E+00  4.02486927E-02  2.37593957E-01
  8.15853851E-01  1.00000000E+00  1.00000000E+00  0.00000000E+00  0.00000000E+00
  0.00000000E+00  0.00000000E+00  0.00000000E+00  0.00000000E+00  0.00000000E+00
  4.18099989E-02  2.36574994E-01  8.16213978E-01  1.00000000E+00  1.00000000E+00
  0.00000000E+00  0.00000000E+00  0.00000000E+00  0.00000000E+00  0.00000000E+00
  0.00000000E+00  0.00000000E+00  4.18099989E-02  2.36574994E-01  8.16213978E-01
  1.00000000E+00  1.00000000E+00  0.00000000E+00  0.00000000E+00  0.00000000E+00
  0.00000000E+00  0.00000000E+00  0.00000000E+00  0.00000000E+00  3.83119186E-02
  2.37403116E-01  8.17592398E-01  1.00000000E+00  1.00000000E+00  0.00000000E+00
  0.00000000E+00  0.00000000E+00  0.00000000E+00  0.00000000E+00  0.00000000E+00
  0.00000000E+00  0.00000000E+00  0.00000000E+00  0.00000000E+00  0.00000000E+00
  0.00000000E+00  0.00000000E+00  3.83119186E-02  2.37403116E-01  8.17592398E-01
  1.00000000E+00  1.00000000E+00  0.00000000E+00  0.00000000E+00  0.00000000E+00
  0.00000000E+00  0.00000000E+00  0.00000000E+00  0.00000000E+00
Coordinates of each shell                  R   N=         216
  9.17594314E-02 -3.54538888E+00  0.00000000E+00  9.17594314E-02 -3.54538888E+00
  0.00000000E+00  9.17594314E-02 -3.54538888E+00  0.00000000E+00  9.17594314E-02
 -3.54538888E+00  0.00000000E+00  9.17594314E-02 -3.54538888E+00  0.00000000E+00
 -9.17594314E-02  3.54538888E+00  0.00000000E+00 -9.17594314E-02  3.54538888E+00
  0.00000000E+00 -9.17594314E-02  3.54538888E+00  0.00000000E+00 -9.17594314E-02
  3.54538888E+00  0.00000000E+00 -9.17594314E-02  3.54538888E+00  0.00000000E+00
  4.15225931E+00  3.92615925E+00  1.88972612E-06  4.15225931E+00  3.92615925E+00
  1.88972612E-06  4.15225931E+00  3.92615925E+00  1.88972612E-06  4.15225931E+00
  3.92615925E+00  1.88972612E-06  5.58394606E+00 -4.41381441E-01  0.00000000E+00
  5.58394606E+00 -4.41381441E-01  0.00000000E+00  5.58394606E+00 -4.41381441E-01
  0.00000000E+00  5.58394606E+00 -4.41381441E-01  0.00000000E+00  1.28365316E-01
 -5.59988968E+00  0.00000000E+00  1.28365316E-01 -5.59988968E+00  0.00000000E+00
  1.28365316E-01 -5.59988968E+00  0.00000000E+00  1.28365316E-01 -5.59988968E+00
  0.00000000E+00 -4.15225931E+00 -3.92615925E+00  1.88972612E-06 -4.15225931E+00
 -3.92615925E+00  1.88972612E-06 -4.15225931E+00 -3.92615925E+00  1.88972612E-06
 -4.15225931E+00 -3.92615925E+00  1.88972612E-06 -5.58394606E+00  4.41381441E-01
  0.00000000E+00 -5.58394606E+00  4.41381441E-01  0.00000000E+00 -5.58394606E+00
  4.41381441E-01  0.00000000E+00 -5.58394606E+00  4.41381441E-01  0.00000000E+00
 -1.28365316E-01  5.59988968E+00  0.00000000E+00 -1.28365316E-01  5.59988968E+00
  0.00000000E+00 -1.28365316E-01  5.59988968E+00  0.00000000E+00 -1.28365316E-01
  5.59988968E+00  0.00000000E+00 -3.53470815E+00  2.89918003E-01  0.00000000E+00
 -3.53470815E+00  2.89918003E-01  0.00000000E+00 -3.53470815E+00  2.89918003E-01
  0.00000000E+00 -3.53470815E+00  2.89918003E-01  0.00000000E+00 -3.53470815E+00
  2.89918003E-01  0.00000000E+00  3.53470815E+00 -2.89918003E-01  0.00000000E+00
  3.53470815E+00 -2.89918003E-01  0.00000000E+00  3.53470815E+00 -2.89918003E-01
  0.00000000E+00  3.53470815E+00 -2.89918003E-01  0.00000000E+00  3.53470815E+00
 -2.89918003E-01  0.00000000E+00  2.50584298E+00  2.36939153E+00  1.88972612E-06
  2.50584298E+00  2.36939153E+00  1.88972612E-06  2.50584298E+00  2.36939153E+00
  1.88972612E-06  2.50584298E+00  2.36939153E+00  1.88972612E-06  2.50584298E+00
  2.36939153E+00  1.88972612E-06 -2.50584298E+00 -2.36939153E+00  1.88972612E-06
 -2.50584298E+00 -2.36939153E+00  1.88972612E-06 -2.50584298E+00 -2.36939153E+00
  1.88972612E-06 -2.50584298E+00 -2.36939153E+00  1.88972612E-06 -2.50584298E+00
 -2.36939153E+00  1.88972612E-06 -2.50584298E+00  2.65014814E+00  0.00000000E+00
 -2.50584298E+00  2.65014814E+00  0.00000000E+00 -2.50584298E+00  2.65014814E+00
  0.00000000E+00 -2.50584298E+00  2.65014814E+00  0.00000000E+00 -2.50584298E+00
  2.65014814E+00  0.00000000E+00 -3.82038183E+00  4.04039130E+00 -1.88972612E-06
 -3.82038183E+00  4.04039130E+00 -1.88972612E-06 -3.82038183E+00  4.04039130E+00
 -1.88972612E-06 -3.82038183E+00  4.04039130E+00 -1.88972612E-06  2.50584298E+00
 -2.65014814E+00  0.00000000E+00  2.50584298E+00 -2.65014814E+00  0.00000000E+00
  2.50584298E+00 -2.65014814E+00  0.00000000E+00  2.50584298E+00 -2.65014814E+00
  0.00000000E+00  2.50584298E+00 -2.65014814E+00  0.00000000E+00  3.82038183E+00
 -4.04039130E+00 -1.88972612E-06  3.82038183E+00 -4.04039130E+00 -1.88972612E-06
  3.82038183E+00 -4.04039130E+00 -1.88972612E-06  3.82038183E+00 -4.04039130E+00
 -1.88972612E-06
Num ILSW                                   I              100
ILSW                                       I   N=         100
           1           0           0           0           2           0
           0           0           0           0         402          -1
           5           0           0           0           0           0
           0           0           0           0           0           0
           1           1           0           0           0           0
           0           0      100000           0          -1           0
           0           0           0           0           0           0
           0           0           0           1           0           0
           0 -2000000000           1           0           0           0
           0           0           4          52           0           0
           0           0           5           0           0           0
           0           0           0          16           0           1
           0           0           0           0           0           0
           0           0           0           0           0           0
           0           0           0           0           0           0
           0           0           0           0           0           0
           0           0           0           0
Num RLSW                                   I               52
RLSW                                       R   N=          52
  8.00000000E-01  7.20000000E-01  1.00000000E+00  8.10000000E-01  2.00000000E-01
  0.00000000E+00  0.00000000E+00  1.00000000E+00  0.00000000E+00  0.00000000E+00
  0.00000000E+00  0.00000000E+00  1.00000000E+00  0.00000000E+00  0.00000000E+00
  0.00000000E+00  0.00000000E+00  1.00000000E+00  0.00000000E+00  0.00000000E+00
  0.00000000E+00  0.00000000E+00  1.00000000E+00  0.00000000E+00  0.00000000E+00
  0.00000000E+00  0.00000000E+00  1.00000000E+00  0.00000000E+00  0.00000000E+00
  0.00000000E+00  0.00000000E+00  1.00000000E+00  0.00000000E+00  0.00000000E+00
  0.00000000E+00  0.00000000E+00  0.00000000E+00  1.00000000E+00  1.00000000E+00
  0.00000000E+00  1.00000000E+00  0.00000000E+00  0.00000000E+00  0.00000000E+00
  0.00000000E+00  0.00000000E+00  0.00000000E+00  0.00000000E+00  0.00000000E+00
  0.00000000E+00  0.00000000E+00
MxBond                                     I                3
NBond                                      I   N=          16
           3           3           1           1           1           1
           1           1           3           3           3           3
           3           1           3           1
IBond                                      I   N=          48
           5          12          15           8          11          13
          11           0           0          10           0           0
           1           0           0          12           0           0
           9           0           0           2           0           0
           7          12          13           4          11          15
           2           3          10           1           6           9
           2           9          14          13           0           0
           1          10          16          15           0           0
RBond                                      R   N=          48
  1.00000000E+00  1.00000000E+00  1.50000000E+00  1.00000000E+00  1.00000000E+00
  1.50000000E+00  1.00000000E+00  0.00000000E+00  0.00000000E+00  1.00000000E+00
  0.00000000E+00  0.00000000E+00  1.00000000E+00  0.00000000E+00  0.00000000E+00
  1.00000000E+00  0.00000000E+00  0.00000000E+00  1.00000000E+00  0.00000000E+00
  0.00000000E+00  1.00000000E+00  0.00000000E+00  0.00000000E+00  1.00000000E+00
  1.00000000E+00  1.50000000E+00  1.00000000E+00  1.00000000E+00  1.50000000E+00
  1.00000000E+00  1.00000000E+00  1.00000000E+00  1.00000000E+00  1.00000000E+00
  1.00000000E+00  1.50000000E+00  1.50000000E+00  1.00000000E+00  1.00000000E+00
  0.00000000E+00  0.00000000E+00  1.50000000E+00  1.50000000E+00  1.00000000E+00
  1.00000000E+00  0.00000000E+00  0.00000000E+00
Virial Ratio                               R      2.004355164690204E+00
SCF Energy                                 R     -3.164448007474628E+02
Total Energy                               R     -3.164448007474628E+02
S**2                                       R      2.005183596152843E+00
S**2 after annihilation                    R      2.000016339037581E+00
RMS Density                                R      9.772292161259393E-09
Job Status                                 I                1
Nuclear derivative order                   I                0
External E-field                           R   N=          35
  0.00000000E+00  0.00000000E+00  0.00000000E+00  0.00000000E+00  0.00000000E+00
  0.00000000E+00  0.00000000E+00  0.00000000E+00  0.00000000E+00  0.00000000E+00
  0.00000000E+00  0.00000000E+00  0.00000000E+00  0.00000000E+00  0.00000000E+00
  0.00000000E+00  0.00000000E+00  0.00000000E+00  0.00000000E+00  0.00000000E+00
  0.00000000E+00  0.00000000E+00  0.00000000E+00  0.00000000E+00  0.00000000E+00
  0.00000000E+00  0.00000000E+00  0.00000000E+00  0.00000000E+00  0.00000000E+00
  0.00000000E+00  0.00000000E+00  0.00000000E+00  0.00000000E+00  0.00000000E+00
IOpCl                                      I                1
IROHF                                      I                0
Alpha Orbital Energies                     R   N=         192
 -1.43910029E+01 -1.43910006E+01 -1.01971276E+01 -1.01971255E+01 -1.01971106E+01
 -1.01971061E+01 -6.68986031E+00 -6.68985762E+00 -9.80472893E-01 -9.77663656E-01
 -7.43154705E-01 -7.31529517E-01 -6.46216561E-01 -6.06802985E-01 -5.54917014E-01
 -5.43428023E-01 -5.33249979E-01 -4.76091016E-01 -4.25927611E-01 -4.21849446E-01
 -4.17690050E-01 -4.10336386E-01 -3.54827017E-01 -3.33450008E-01 -3.16946034E-01
 -3.12413416E-01 -2.65289481E-01 -1.94842103E-01 -1.75214535E-01 -3.58819068E-02
  8.31141119E-03  1.72334856E-02  6.23866478E-02  7.46857103E-02  9.65717695E-02
  1.06947318E-01  1.12765365E-01  1.25087232E-01  1.50291222E-01  1.56802441E-01
  1.69746367E-01  2.15035995E-01  2.30333243E-01  2.32209222E-01  2.51245141E-01
  2.69483146E-01  2.95846177E-01  3.00671232E-01  3.08910516E-01  3.20443625E-01
  3.30052743E-01  3.49075581E-01  3.53722045E-01  3.54889834E-01  3.94571563E-01
  3.96184414E-01  3.99906252E-01  4.26146198E-01  4.46881809E-01  4.79138460E-01
  4.82420638E-01  5.28094701E-01  5.34344537E-01  5.37328910E-01  5.48223204E-01
  5.59558241E-01  5.65848236E-01  5.72402233E-01  5.82588048E-01  6.07774753E-01
  6.38234652E-01  6.47324571E-01  6.72477005E-01  6.83344431E-01  7.22289996E-01
  7.34573566E-01  7.35912494E-01  7.43285242E-01  7.64055677E-01  7.91979431E-01
  8.09371348E-01  8.11062725E-01  8.62686040E-01  8.63090979E-01  9.12241417E-01
  9.38152673E-01  1.00039375E+00  1.02120475E+00  1.03590005E+00  1.03702803E+00
  1.07131389E+00  1.09697595E+00  1.10691372E+00  1.13473447E+00  1.13850393E+00
  1.13864177E+00  1.15524699E+00  1.23259576E+00  1.30331881E+00  1.33871800E+00
  1.39480647E+00  1.40700126E+00  1.41370478E+00  1.46172103E+00  1.47895310E+00
  1.48064834E+00  1.48138616E+00  1.52840694E+00  1.54354921E+00  1.56211973E+00
  1.57174992E+00  1.62046385E+00  1.64026234E+00  1.66655766E+00  1.66731120E+00
  1.67680338E+00  1.70482167E+00  1.74845843E+00  1.80434953E+00  1.81896181E+00
  1.82791862E+00  1.83830222E+00  1.84954596E+00  1.87689039E+00  1.88310950E+00
  1.88616774E+00  1.89345927E+00  1.91401299E+00  1.91949527E+00  1.97198183E+00
  1.98514052E+00  1.99032830E+00  2.00372751E+00  2.05386500E+00  2.05997115E+00
  2.10258620E+00  2.18405841E+00  2.21966018E+00  2.25984913E+00  2.28348823E+00
  2.37793162E+00  2.40410058E+00  2.42472384E+00  2.42564769E+00  2.43138141E+00
  2.44971685E+00  2.53758502E+00  2.55262941E+00  2.57197082E+00  2.57853014E+00
  2.58116699E+00  2.60846184E+00  2.63691143E+00  2.65039768E+00  2.69267161E+00
  2.70446334E+00  2.71282004E+00  2.72854442E+00  2.73141542E+00  2.75899756E+00
  2.76648980E+00  2.77743696E+00  2.81828864E+00  2.85883241E+00  2.87472492E+00
  2.92732855E+00  2.97699034E+00  3.01288419E+00  3.20526546E+00  3.35450973E+00
  3.46874915E+00  3.61842755E+00  3.64817987E+00  3.66915079E+00  3.69256070E+00
  3.72080524E+00  3.74587935E+00  3.77038299E+00  3.82697874E+00  3.87903570E+00
  4.75520585E+00  4.77299246E+00  4.93594321E+00  5.15205087E+00  1.47527760E+01
  1.47716207E+01  2.38271933E+01  2.38302340E+01  2.38677793E+01  2.39362343E+01
  3.55586368E+01  3.55670020E+01
Beta Orbital Energies                      R   N=         192
 -1.43880860E+01 -1.43880848E+01 -1.01922236E+01 -1.01922169E+01 -1.01922096E+01
 -1.01922063E+01 -6.68816878E+00 -6.68816859E+00 -9.71171262E-01 -9.68382367E-01
 -7.29508922E-01 -7.18467284E-01 -6.34625824E-01 -5.97396820E-01 -5.49681405E-01
 -5.37379867E-01 -5.24343388E-01 -4.68990499E-01 -4.19580372E-01 -4.13007684E-01
 -3.93004216E-01 -3.81101556E-01 -3.48623706E-01 -3.27617961E-01 -3.14119023E-01
 -3.09529492E-01 -2.13127241E-01 -1.10971054E-01 -1.06156637E-01  9.70577352E-03
  1.34113462E-02  1.82118862E-02  7.63009516E-02  9.28870236E-02  9.81053347E-02
  1.08269680E-01  1.16615512E-01  1.55623075E-01  1.57444939E-01  1.60206044E-01
  1.74491798E-01  2.19240975E-01  2.36332051E-01  2.37908303E-01  2.57703640E-01
  2.73826786E-01  3.05275164E-01  3.10523370E-01  3.18023211E-01  3.23389507E-01