Title Card Required                                                     
SP        UB3LYP                                                      6-311G(d,p)         
Number of atoms                            I               16
Info1-9                                    I   N=           9
          23          23           0           0           0         110
           1          18        -502
Full Title                                 C   N=           2
Title Card Required     
Route                                      C   N=           4
#p ub3lyp/6-311g(d,p) nosymm density=current    
Charge                                     I                0
Multiplicity                               I                3
Number of electrons                        I               56
Number of alpha electrons                  I               29
Number of beta electrons                   I               27
Number of basis functions                  I              192
Number of independent functions            I              192
Number of point charges in /Mol/           I                0
Number of translation vectors              I                0
Atomic numbers                             I   N=          16
           6           6           6           1           1           1
           1           1           1           6           1           6
           1           6           7           5
Nuclear charges                            R   N=          16
  6.00000000E+00  6.00000000E+00  6.00000000E+00  1.00000000E+00  1.00000000E+00
  1.00000000E+00  1.00000000E+00  1.00000000E+00  1.00000000E+00  6.00000000E+00
  1.00000000E+00  6.00000000E+00  1.00000000E+00  6.00000000E+00  7.00000000E+00
  5.00000000E+00
Current cartesian coordinates              R   N=          48
  0.00000000E+00  3.29337879E+00  0.00000000E+00 -2.56118550E+00 -2.45786850E+00
  0.00000000E+00 -3.51149475E+00 -4.11147713E-02  0.00000000E+00  3.82044041E+00
  3.85996214E+00  0.00000000E+00 -1.26479370E-02 -5.97566172E+00  0.00000000E+00
 -4.12242053E+00 -3.80122567E+00  0.00000000E+00 -5.54885384E+00  1.99666573E-01
  0.00000000E+00 -3.68182144E+00  3.68282677E+00  0.00000000E+00 -9.33430219E-02
  5.33754089E+00  0.00000000E+00  3.63332918E+00 -4.73867723E-02  0.00000000E+00
  5.68410910E+00  9.07408690E-02  0.00000000E+00  2.66259387E+00 -2.54626800E+00
  0.00000000E+00  4.18676760E+00 -3.93332509E+00  0.00000000E+00  2.47864793E+00
  2.30376323E+00  0.00000000E+00 -2.37315397E+00  2.29334139E+00  0.00000000E+00
  3.37051552E-02 -3.70818690E+00  0.00000000E+00
Number of symbols in /Mol/                 I                0
Force Field                                I                0
Atom Types                                 C   N=          16
                                                            
                                                            
                                                            
            
Int Atom Types                             I   N=          16
           0           0           0           0           0           0
           0           0           0           0           0           0
           0           0           0           0
MM charges                                 R   N=          16
  0.00000000E+00  0.00000000E+00  0.00000000E+00  0.00000000E+00  0.00000000E+00
  0.00000000E+00  0.00000000E+00  0.00000000E+00  0.00000000E+00  0.00000000E+00
  0.00000000E+00  0.00000000E+00  0.00000000E+00  0.00000000E+00  0.00000000E+00
  0.00000000E+00
Integer atomic weights                     I   N=          16
          12          12          12           1           1           1
           1           1           1          12           1          12
           1          12          14          11
Real atomic weights                        R   N=          16
  1.20000000E+01  1.20000000E+01  1.20000000E+01  1.00782504E+00  1.00782504E+00
  1.00782504E+00  1.00782504E+00  1.00782504E+00  1.00782504E+00  1.20000000E+01
  1.00782504E+00  1.20000000E+01  1.00782504E+00  1.20000000E+01  1.40030740E+01
  1.10093053E+01
Atom fragment info                         I   N=          16
           0           0           0           0           0           0
           0           0           0           0           0           0
           0           0           0           0
Atom residue num                           I   N=          16
           0           0           0           0           0           0
           0           0           0           0           0           0
           0           0           0           0
Nuclear spins                              I   N=          16
           0           0           0           1           1           1
           1           1           1           0           1           0
           1           0           2           3
Nuclear ZEff                               R   N=          16
 -3.60000000E+00 -3.60000000E+00 -3.60000000E+00 -1.00000000E+00 -1.00000000E+00
 -1.00000000E+00 -1.00000000E+00 -1.00000000E+00 -1.00000000E+00 -3.60000000E+00
 -1.00000000E+00 -3.60000000E+00 -1.00000000E+00 -3.60000000E+00 -4.55000000E+00
 -2.75000000E+00
Nuclear ZNuc                               R   N=          16
  6.00000000E+00  6.00000000E+00  6.00000000E+00  1.00000000E+00  1.00000000E+00
  1.00000000E+00  1.00000000E+00  1.00000000E+00  1.00000000E+00  6.00000000E+00
  1.00000000E+00  6.00000000E+00  1.00000000E+00  6.00000000E+00  7.00000000E+00
  5.00000000E+00
Nuclear QMom                               R   N=          16
  0.00000000E+00  0.00000000E+00  0.00000000E+00  0.00000000E+00  0.00000000E+00
  0.00000000E+00  0.00000000E+00  0.00000000E+00  0.00000000E+00  0.00000000E+00
  0.00000000E+00  0.00000000E+00  0.00000000E+00  0.00000000E+00  2.04400000E+00
  4.05900000E+00
Nuclear GFac                               R   N=          16
  0.00000000E+00  0.00000000E+00  0.00000000E+00  2.79284600E+00  2.79284600E+00
  2.79284600E+00  2.79284600E+00  2.79284600E+00  2.79284600E+00  0.00000000E+00
  2.79284600E+00  0.00000000E+00  2.79284600E+00  0.00000000E+00  4.03761000E-01
  2.68863700E+00
MicOpt                                     I   N=          16
          -1          -1          -1          -1          -1          -1
          -1          -1          -1          -1          -1          -1
          -1          -1          -1          -1
Number of residues                         I                0
Number of secondary structures             I                0
Number of contracted shells                I               72
Number of primitive shells                 I              144
Pure/Cartesian d shells                    I                0
Pure/Cartesian f shells                    I                0
Highest angular momentum                   I                2
Largest degree of contraction              I                6
Shell types                                I   N=          72
           0          -1          -1          -1          -2           0
          -1          -1          -1          -2           0          -1
          -1          -1          -2           0           0           0
           1           0           0           0           1           0
           0           0           1           0           0           0
           1           0           0           0           1           0
           0           0           1           0          -1          -1
          -1          -2           0           0           0           1
           0          -1          -1          -1          -2           0
           0           0           1           0          -1          -1
          -1          -2           0          -1          -1          -1
          -2           0          -1          -1          -1          -2
Number of primitives per shell             I   N=          72
           6           3           1           1           1           6
           3           1           1           1           6           3
           1           1           1           3           1           1
           1           3           1           1           1           3
           1           1           1           3           1           1
           1           3           1           1           1           3
           1           1           1           6           3           1
           1           1           3           1           1           1
           6           3           1           1           1           3
           1           1           1           6           3           1
           1           1           6           3           1           1
           1           6           3           1           1           1
Shell to atom map                          I   N=          72
           1           1           1           1           1           2
           2           2           2           2           3           3
           3           3           3           4           4           4
           4           5           5           5           5           6
           6           6           6           7           7           7
           7           8           8           8           8           9
           9           9           9          10          10          10
          10          10          11          11          11          11
          12          12          12          12          12          13
          13          13          13          14          14          14
          14          14          15          15          15          15
          15          16          16          16          16          16
Primitive exponents                        R   N=         144
  4.56324000E+03  6.82024000E+02  1.54973000E+02  4.44553000E+01  1.30290000E+01
  1.82773000E+00  2.09642000E+01  4.80331000E+00  1.45933000E+00  4.83456000E-01
  1.45585000E-01  6.26000000E-01  4.56324000E+03  6.82024000E+02  1.54973000E+02
  4.44553000E+01  1.30290000E+01  1.82773000E+00  2.09642000E+01  4.80331000E+00
  1.45933000E+00  4.83456000E-01  1.45585000E-01  6.26000000E-01  4.56324000E+03
  6.82024000E+02  1.54973000E+02  4.44553000E+01  1.30290000E+01  1.82773000E+00
  2.09642000E+01  4.80331000E+00  1.45933000E+00  4.83456000E-01  1.45585000E-01
  6.26000000E-01  3.38650000E+01  5.09479000E+00  1.15879000E+00  3.25840000E-01
  1.02741000E-01  7.50000000E-01  3.38650000E+01  5.09479000E+00  1.15879000E+00
  3.25840000E-01  1.02741000E-01  7.50000000E-01  3.38650000E+01  5.09479000E+00
  1.15879000E+00  3.25840000E-01  1.02741000E-01  7.50000000E-01  3.38650000E+01
  5.09479000E+00  1.15879000E+00  3.25840000E-01  1.02741000E-01  7.50000000E-01
  3.38650000E+01  5.09479000E+00  1.15879000E+00  3.25840000E-01  1.02741000E-01
  7.50000000E-01  3.38650000E+01  5.09479000E+00  1.15879000E+00  3.25840000E-01
  1.02741000E-01  7.50000000E-01  4.56324000E+03  6.82024000E+02  1.54973000E+02
  4.44553000E+01  1.30290000E+01  1.82773000E+00  2.09642000E+01  4.80331000E+00
  1.45933000E+00  4.83456000E-01  1.45585000E-01  6.26000000E-01  3.38650000E+01
  5.09479000E+00  1.15879000E+00  3.25840000E-01  1.02741000E-01  7.50000000E-01
  4.56324000E+03  6.82024000E+02  1.54973000E+02  4.44553000E+01  1.30290000E+01
  1.82773000E+00  2.09642000E+01  4.80331000E+00  1.45933000E+00  4.83456000E-01
  1.45585000E-01  6.26000000E-01  3.38650000E+01  5.09479000E+00  1.15879000E+00
  3.25840000E-01  1.02741000E-01  7.50000000E-01  4.56324000E+03  6.82024000E+02
  1.54973000E+02  4.44553000E+01  1.30290000E+01  1.82773000E+00  2.09642000E+01
  4.80331000E+00  1.45933000E+00  4.83456000E-01  1.45585000E-01  6.26000000E-01
  6.29348000E+03  9.49044000E+02  2.18776000E+02  6.36916000E+01  1.88282000E+01
  2.72023000E+00  3.06331000E+01  7.02614000E+00  2.11205000E+00  6.84009000E-01
  2.00878000E-01  9.13000000E-01  2.85889000E+03  4.28140000E+02  9.75282000E+01
  2.79693000E+01  8.21577000E+00  1.11278000E+00  1.32415000E+01  3.00166000E+00
  9.12856000E-01  3.15454000E-01  9.88563000E-02  4.01000000E-01
Contraction coefficients                   R   N=         144
  1.96665025E-03  1.52306019E-02  7.61269097E-02  2.60801033E-01  6.16462078E-01
  2.21006028E-01  1.14660081E-01  9.19999648E-01 -3.03068213E-03  1.00000000E+00
  1.00000000E+00  1.00000000E+00  1.96665025E-03  1.52306019E-02  7.61269097E-02
  2.60801033E-01  6.16462078E-01  2.21006028E-01  1.14660081E-01  9.19999648E-01
 -3.03068213E-03  1.00000000E+00  1.00000000E+00  1.00000000E+00  1.96665025E-03
  1.52306019E-02  7.61269097E-02  2.60801033E-01  6.16462078E-01  2.21006028E-01
  1.14660081E-01  9.19999648E-01 -3.03068213E-03  1.00000000E+00  1.00000000E+00
  1.00000000E+00  2.54938145E-02  1.90373109E-01  8.52161486E-01  1.00000000E+00
  1.00000000E+00  1.00000000E+00  2.54938145E-02  1.90373109E-01  8.52161486E-01
  1.00000000E+00  1.00000000E+00  1.00000000E+00  2.54938145E-02  1.90373109E-01
  8.52161486E-01  1.00000000E+00  1.00000000E+00  1.00000000E+00  2.54938145E-02
  1.90373109E-01  8.52161486E-01  1.00000000E+00  1.00000000E+00  1.00000000E+00
  2.54938145E-02  1.90373109E-01  8.52161486E-01  1.00000000E+00  1.00000000E+00
  1.00000000E+00  2.54938145E-02  1.90373109E-01  8.52161486E-01  1.00000000E+00
  1.00000000E+00  1.00000000E+00  1.96665025E-03  1.52306019E-02  7.61269097E-02
  2.60801033E-01  6.16462078E-01  2.21006028E-01  1.14660081E-01  9.19999648E-01
 -3.03068213E-03  1.00000000E+00  1.00000000E+00  1.00000000E+00  2.54938145E-02
  1.90373109E-01  8.52161486E-01  1.00000000E+00  1.00000000E+00  1.00000000E+00
  1.96665025E-03  1.52306019E-02  7.61269097E-02  2.60801033E-01  6.16462078E-01
  2.21006028E-01  1.14660081E-01  9.19999648E-01 -3.03068213E-03  1.00000000E+00
  1.00000000E+00  1.00000000E+00  2.54938145E-02  1.90373109E-01  8.52161486E-01
  1.00000000E+00  1.00000000E+00  1.00000000E+00  1.96665025E-03  1.52306019E-02
  7.61269097E-02  2.60801033E-01  6.16462078E-01  2.21006028E-01  1.14660081E-01
  9.19999648E-01 -3.03068213E-03  1.00000000E+00  1.00000000E+00  1.00000000E+00
  1.96978815E-03  1.49612859E-02  7.35005308E-02  2.48936766E-01  6.02459433E-01
  2.56201759E-01  1.11906080E-01  9.21666655E-01 -2.56919183E-03  1.00000000E+00
  1.00000000E+00  1.00000000E+00  2.15374907E-03  1.65822928E-02  8.21869644E-02
  2.76617880E-01  6.29315727E-01  1.73769925E-01  1.17442942E-01  9.18001549E-01
 -2.65104870E-03  1.00000000E+00  1.00000000E+00  1.00000000E+00
P(S=P) Contraction coefficients            R   N=         144
  0.00000000E+00  0.00000000E+00  0.00000000E+00  0.00000000E+00  0.00000000E+00
  0.00000000E+00  4.02486927E-02  2.37593957E-01  8.15853851E-01  1.00000000E+00
  1.00000000E+00  0.00000000E+00  0.00000000E+00  0.00000000E+00  0.00000000E+00
  0.00000000E+00  0.00000000E+00  0.00000000E+00  4.02486927E-02  2.37593957E-01
  8.15853851E-01  1.00000000E+00  1.00000000E+00  0.00000000E+00  0.00000000E+00
  0.00000000E+00  0.00000000E+00  0.00000000E+00  0.00000000E+00  0.00000000E+00
  4.02486927E-02  2.37593957E-01  8.15853851E-01  1.00000000E+00  1.00000000E+00
  0.00000000E+00  0.00000000E+00  0.00000000E+00  0.00000000E+00  0.00000000E+00
  0.00000000E+00  0.00000000E+00  0.00000000E+00  0.00000000E+00  0.00000000E+00
  0.00000000E+00  0.00000000E+00  0.00000000E+00  0.00000000E+00  0.00000000E+00
  0.00000000E+00  0.00000000E+00  0.00000000E+00  0.00000000E+00  0.00000000E+00
  0.00000000E+00  0.00000000E+00  0.00000000E+00  0.00000000E+00  0.00000000E+00
  0.00000000E+00  0.00000000E+00  0.00000000E+00  0.00000000E+00  0.00000000E+00
  0.00000000E+00  0.00000000E+00  0.00000000E+00  0.00000000E+00  0.00000000E+00
  0.00000000E+00  0.00000000E+00  0.00000000E+00  0.00000000E+00  0.00000000E+00
  0.00000000E+00  0.00000000E+00  0.00000000E+00  4.02486927E-02  2.37593957E-01
  8.15853851E-01  1.00000000E+00  1.00000000E+00  0.00000000E+00  0.00000000E+00
  0.00000000E+00  0.00000000E+00  0.00000000E+00  0.00000000E+00  0.00000000E+00
  0.00000000E+00  0.00000000E+00  0.00000000E+00  0.00000000E+00  0.00000000E+00
  0.00000000E+00  4.02486927E-02  2.37593957E-01  8.15853851E-01  1.00000000E+00
  1.00000000E+00  0.00000000E+00  0.00000000E+00  0.00000000E+00  0.00000000E+00
  0.00000000E+00  0.00000000E+00  0.00000000E+00  0.00000000E+00  0.00000000E+00
  0.00000000E+00  0.00000000E+00  0.00000000E+00  0.00000000E+00  4.02486927E-02
  2.37593957E-01  8.15853851E-01  1.00000000E+00  1.00000000E+00  0.00000000E+00
  0.00000000E+00  0.00000000E+00  0.00000000E+00  0.00000000E+00  0.00000000E+00
  0.00000000E+00  3.83119186E-02  2.37403116E-01  8.17592398E-01  1.00000000E+00
  1.00000000E+00  0.00000000E+00  0.00000000E+00  0.00000000E+00  0.00000000E+00
  0.00000000E+00  0.00000000E+00  0.00000000E+00  4.18099989E-02  2.36574994E-01
  8.16213978E-01  1.00000000E+00  1.00000000E+00  0.00000000E+00
Coordinates of each shell                  R   N=         216
  0.00000000E+00  3.29337879E+00  0.00000000E+00  0.00000000E+00  3.29337879E+00
  0.00000000E+00  0.00000000E+00  3.29337879E+00  0.00000000E+00  0.00000000E+00
  3.29337879E+00  0.00000000E+00  0.00000000E+00  3.29337879E+00  0.00000000E+00
 -2.56118550E+00 -2.45786850E+00  0.00000000E+00 -2.56118550E+00 -2.45786850E+00
  0.00000000E+00 -2.56118550E+00 -2.45786850E+00  0.00000000E+00 -2.56118550E+00
 -2.45786850E+00  0.00000000E+00 -2.56118550E+00 -2.45786850E+00  0.00000000E+00
 -3.51149475E+00 -4.11147713E-02  0.00000000E+00 -3.51149475E+00 -4.11147713E-02
  0.00000000E+00 -3.51149475E+00 -4.11147713E-02  0.00000000E+00 -3.51149475E+00
 -4.11147713E-02  0.00000000E+00 -3.51149475E+00 -4.11147713E-02  0.00000000E+00
  3.82044041E+00  3.85996214E+00  0.00000000E+00  3.82044041E+00  3.85996214E+00
  0.00000000E+00  3.82044041E+00  3.85996214E+00  0.00000000E+00  3.82044041E+00
  3.85996214E+00  0.00000000E+00 -1.26479370E-02 -5.97566172E+00  0.00000000E+00
 -1.26479370E-02 -5.97566172E+00  0.00000000E+00 -1.26479370E-02 -5.97566172E+00
  0.00000000E+00 -1.26479370E-02 -5.97566172E+00  0.00000000E+00 -4.12242053E+00
 -3.80122567E+00  0.00000000E+00 -4.12242053E+00 -3.80122567E+00  0.00000000E+00
 -4.12242053E+00 -3.80122567E+00  0.00000000E+00 -4.12242053E+00 -3.80122567E+00
  0.00000000E+00 -5.54885384E+00  1.99666573E-01  0.00000000E+00 -5.54885384E+00
  1.99666573E-01  0.00000000E+00 -5.54885384E+00  1.99666573E-01  0.00000000E+00
 -5.54885384E+00  1.99666573E-01  0.00000000E+00 -3.68182144E+00  3.68282677E+00
  0.00000000E+00 -3.68182144E+00  3.68282677E+00  0.00000000E+00 -3.68182144E+00
  3.68282677E+00  0.00000000E+00 -3.68182144E+00  3.68282677E+00  0.00000000E+00
 -9.33430219E-02  5.33754089E+00  0.00000000E+00 -9.33430219E-02  5.33754089E+00
  0.00000000E+00 -9.33430219E-02  5.33754089E+00  0.00000000E+00 -9.33430219E-02
  5.33754089E+00  0.00000000E+00  3.63332918E+00 -4.73867723E-02  0.00000000E+00
  3.63332918E+00 -4.73867723E-02  0.00000000E+00  3.63332918E+00 -4.73867723E-02
  0.00000000E+00  3.63332918E+00 -4.73867723E-02  0.00000000E+00  3.63332918E+00
 -4.73867723E-02  0.00000000E+00  5.68410910E+00  9.07408690E-02  0.00000000E+00
  5.68410910E+00  9.07408690E-02  0.00000000E+00  5.68410910E+00  9.07408690E-02
  0.00000000E+00  5.68410910E+00  9.07408690E-02  0.00000000E+00  2.66259387E+00
 -2.54626800E+00  0.00000000E+00  2.66259387E+00 -2.54626800E+00  0.00000000E+00
  2.66259387E+00 -2.54626800E+00  0.00000000E+00  2.66259387E+00 -2.54626800E+00
  0.00000000E+00  2.66259387E+00 -2.54626800E+00  0.00000000E+00  4.18676760E+00
 -3.93332509E+00  0.00000000E+00  4.18676760E+00 -3.93332509E+00  0.00000000E+00
  4.18676760E+00 -3.93332509E+00  0.00000000E+00  4.18676760E+00 -3.93332509E+00
  0.00000000E+00  2.47864793E+00  2.30376323E+00  0.00000000E+00  2.47864793E+00
  2.30376323E+00  0.00000000E+00  2.47864793E+00  2.30376323E+00  0.00000000E+00
  2.47864793E+00  2.30376323E+00  0.00000000E+00  2.47864793E+00  2.30376323E+00
  0.00000000E+00 -2.37315397E+00  2.29334139E+00  0.00000000E+00 -2.37315397E+00
  2.29334139E+00  0.00000000E+00 -2.37315397E+00  2.29334139E+00  0.00000000E+00
 -2.37315397E+00  2.29334139E+00  0.00000000E+00 -2.37315397E+00  2.29334139E+00
  0.00000000E+00  3.37051552E-02 -3.70818690E+00  0.00000000E+00  3.37051552E-02
 -3.70818690E+00  0.00000000E+00  3.37051552E-02 -3.70818690E+00  0.00000000E+00
  3.37051552E-02 -3.70818690E+00  0.00000000E+00  3.37051552E-02 -3.70818690E+00
  0.00000000E+00
Num ILSW                                   I              100
ILSW                                       I   N=         100
           1           0           0           0           2           0
           0           0           0           0         402          -1
           5           0           0           0           0           0
           0           0           0           0           0           0
           1           1           0           0           0           0
           0           0      100000           0          -1           0
           0           0           0           0           0           0
           0           0           0           1           0           0
           0 -2000000000           1           0           0           0
           0           0           4          52           0           0
           0           0           5           0           0           0
           0           0           0          16           0           1
           0           0           0           0           0           0
           0           0           0           0           0           0
           0           0           0           0           0           0
           0           0           0           0           0           0
           0           0           0           0
Num RLSW                                   I               52
RLSW                                       R   N=          52
  8.00000000E-01  7.20000000E-01  1.00000000E+00  8.10000000E-01  2.00000000E-01
  0.00000000E+00  0.00000000E+00  1.00000000E+00  0.00000000E+00  0.00000000E+00
  0.00000000E+00  0.00000000E+00  1.00000000E+00  0.00000000E+00  0.00000000E+00
  0.00000000E+00  0.00000000E+00  1.00000000E+00  0.00000000E+00  0.00000000E+00
  0.00000000E+00  0.00000000E+00  1.00000000E+00  0.00000000E+00  0.00000000E+00
  0.00000000E+00  0.00000000E+00  1.00000000E+00  0.00000000E+00  0.00000000E+00
  0.00000000E+00  0.00000000E+00  1.00000000E+00  0.00000000E+00  0.00000000E+00
  0.00000000E+00  0.00000000E+00  0.00000000E+00  1.00000000E+00  1.00000000E+00
  0.00000000E+00  1.00000000E+00  0.00000000E+00  0.00000000E+00  0.00000000E+00
  0.00000000E+00  0.00000000E+00  0.00000000E+00  0.00000000E+00  0.00000000E+00
  0.00000000E+00  0.00000000E+00
MxBond                                     I                3
NBond                                      I   N=          16
           3           3           3           1           1           1
           1           1           1           3           1           3
           1           3           3           3
IBond                                      I   N=          48
           9          14          15           3           6          16
           2           7          15          14           0           0
          16           0           0           2           0           0
           3           0           0          15           0           0
           1           0           0          11          12          14
          10           0           0          10          13          16
          12           0           0           1           4          10
           1           3           8           2           5          12
RBond                                      R   N=          48
  1.00000000E+00  1.50000000E+00  1.50000000E+00  1.50000000E+00  1.00000000E+00
  1.00000000E+00  1.50000000E+00  1.00000000E+00  1.00000000E+00  1.00000000E+00
  0.00000000E+00  0.00000000E+00  1.00000000E+00  0.00000000E+00  0.00000000E+00
  1.00000000E+00  0.00000000E+00  0.00000000E+00  1.00000000E+00  0.00000000E+00
  0.00000000E+00  1.00000000E+00  0.00000000E+00  0.00000000E+00  1.00000000E+00
  0.00000000E+00  0.00000000E+00  1.00000000E+00  1.50000000E+00  1.50000000E+00
  1.00000000E+00  0.00000000E+00  0.00000000E+00  1.50000000E+00  1.00000000E+00
  1.00000000E+00  1.00000000E+00  0.00000000E+00  0.00000000E+00  1.50000000E+00
  1.00000000E+00  1.50000000E+00  1.50000000E+00  1.00000000E+00  1.00000000E+00
  1.00000000E+00  1.00000000E+00  1.00000000E+00
Virial Ratio                               R      2.004414167084098E+00
SCF Energy                                 R     -3.130302345496187E+02
Total Energy                               R     -3.130302345496187E+02
S**2                                       R      2.004521301399109E+00
S**2 after annihilation                    R      2.000012459327896E+00
RMS Density                                R      6.157782148911768E-09
Job Status                                 I                1
Nuclear derivative order                   I                0
External E-field                           R   N=          35
  0.00000000E+00  0.00000000E+00  0.00000000E+00  0.00000000E+00  0.00000000E+00
  0.00000000E+00  0.00000000E+00  0.00000000E+00  0.00000000E+00  0.00000000E+00
  0.00000000E+00  0.00000000E+00  0.00000000E+00  0.00000000E+00  0.00000000E+00
  0.00000000E+00  0.00000000E+00  0.00000000E+00  0.00000000E+00  0.00000000E+00
  0.00000000E+00  0.00000000E+00  0.00000000E+00  0.00000000E+00  0.00000000E+00
  0.00000000E+00  0.00000000E+00  0.00000000E+00  0.00000000E+00  0.00000000E+00
  0.00000000E+00  0.00000000E+00  0.00000000E+00  0.00000000E+00  0.00000000E+00
IOpCl                                      I                1
IROHF                                      I                0
Alpha Orbital Energies                     R   N=         192
 -1.44006264E+01 -1.02317904E+01 -1.02217272E+01 -1.01941499E+01 -1.01747051E+01
 -1.01582662E+01 -1.01502128E+01 -6.68237673E+00 -9.94814723E-01 -8.15150822E-01
 -7.77470989E-01 -7.21931330E-01 -6.73822609E-01 -5.98527291E-01 -5.81327004E-01
 -5.37390522E-01 -4.79975851E-01 -4.62234535E-01 -4.40166752E-01 -4.36411284E-01
 -4.34122405E-01 -3.80274364E-01 -3.70914442E-01 -3.38159824E-01 -3.09619029E-01
 -2.96705141E-01 -2.94086250E-01 -2.11670243E-01 -1.58866161E-01 -2.80180421E-03
 -3.43804672E-04  3.74542733E-02  4.49069074E-02  6.33602446E-02  9.28320863E-02
  1.06790289E-01  1.23646394E-01  1.36976840E-01  1.41919901E-01  1.74650219E-01
  1.91490594E-01  2.22199638E-01  2.39178998E-01  2.48483403E-01  2.76179133E-01
  2.89186434E-01  2.95451548E-01  3.13188732E-01  3.14273176E-01  3.33808108E-01
  3.56597518E-01  3.70390842E-01  3.84094546E-01  4.04289324E-01  4.18840103E-01
  4.25270644E-01  4.31376423E-01  4.34198036E-01  4.44220176E-01  4.69721986E-01
  5.05300244E-01  5.17971470E-01  5.47011492E-01  5.61419027E-01  5.62754996E-01
  5.76530861E-01  5.88400620E-01  5.93197807E-01  5.96428914E-01  6.05810360E-01
  6.37278137E-01  6.77244014E-01  6.81985989E-01  7.08303312E-01  7.28424526E-01
  7.48869752E-01  7.50324684E-01  7.63893286E-01  7.85472746E-01  7.94789177E-01
  8.13607786E-01  8.14667169E-01  8.81391005E-01  8.87048631E-01  9.09013553E-01
  9.29806150E-01  9.76553344E-01  1.00698082E+00  1.02230423E+00  1.05533692E+00
  1.06850160E+00  1.08999949E+00  1.09981002E+00  1.11711014E+00  1.13481981E+00
  1.17075304E+00  1.24754992E+00  1.27772997E+00  1.36565031E+00  1.38999959E+00
  1.40270336E+00  1.40799275E+00  1.45342441E+00  1.45696921E+00  1.48052382E+00
  1.49430633E+00  1.51283036E+00  1.57157698E+00  1.60125805E+00  1.61191065E+00
  1.62333881E+00  1.64623039E+00  1.68604489E+00  1.68681854E+00  1.70933239E+00
  1.71986119E+00  1.74423284E+00  1.77061462E+00  1.77970890E+00  1.79498975E+00
  1.80845926E+00  1.82620411E+00  1.86038650E+00  1.88123119E+00  1.89453998E+00
  1.89517475E+00  1.91982395E+00  1.94089204E+00  1.95571823E+00  2.02012338E+00
  2.03235945E+00  2.07216266E+00  2.07930235E+00  2.10990191E+00  2.14825990E+00
  2.18770951E+00  2.19225223E+00  2.22707484E+00  2.25481014E+00  2.27853089E+00
  2.31057710E+00  2.40031958E+00  2.42229252E+00  2.47231591E+00  2.50656892E+00
  2.52902119E+00  2.53311993E+00  2.53771132E+00  2.55811534E+00  2.59525818E+00
  2.60091234E+00  2.63235664E+00  2.63385199E+00  2.65855715E+00  2.68501929E+00
  2.72333578E+00  2.72818241E+00  2.73690386E+00  2.76163437E+00  2.79218096E+00
  2.79981152E+00  2.80762089E+00  2.85755277E+00  2.89633017E+00  2.90967911E+00
  2.92413184E+00  3.01552555E+00  3.05651012E+00  3.17499075E+00  3.33143591E+00
  3.34365520E+00  3.35579157E+00  3.43124520E+00  3.58225984E+00  3.65248428E+00
  3.67651339E+00  3.74368127E+00  3.85902062E+00  3.95928965E+00  3.96896633E+00
  4.09532639E+00  4.38679210E+00  4.76139865E+00  5.12898331E+00  1.47285178E+01
  2.36210133E+01  2.37381135E+01  2.38811274E+01  2.39858340E+01  2.41407987E+01
  2.41997182E+01  3.55402670E+01
Beta Orbital Energies                      R   N=         192
 -1.43970013E+01 -1.02261999E+01 -1.02195546E+01 -1.01910678E+01 -1.01717651E+01
 -1.01517936E+01 -1.01471612E+01 -6.68014979E+00 -9.84981455E-01 -8.01543577E-01
 -7.66424878E-01 -7.07358900E-01 -6.61254122E-01 -5.89427103E-01 -5.75490924E-01
 -5.28231469E-01 -4.76540346E-01 -4.55220563E-01 -4.35852346E-01 -4.28195698E-01
 -4.07724722E-01 -3.75666917E-01 -3.66570913E-01 -3.03707365E-01 -2.98250070E-01
 -2.90633058E-01 -2.53750905E-01 -1.30769565E-01 -8.40417119E-02 -1.60654711E-03
  4.24777360E-02  4.60860578E-02  6.46703357E-02  7.44170561E-02  9.44540903E-02
  1.08658882E-01  1.26883058E-01  1.44779336E-01  1.70516492E-01  1.80216872E-01
  1.95312196E-01  2.28042144E-01  2.42350745E-01  2.56374524E-01  2.80704561E-01
  2.92708696E-01  3.00791509E-01  3.20330395E-01  3.30960607E-01  3.37015270E-01