Title Card Required                                                     
SP        RB3LYP                                                      6-311G(d,p)         
Number of atoms                            I               16
Info1-9                                    I   N=           9
          23          23           0           0           0         110
           1          18        -502
Full Title                                 C   N=           2
Title Card Required     
Route                                      C   N=           5
#p b3lyp/6-311g(d,p) nosymm pop=nbo density=current         
Charge                                     I                0
Multiplicity                               I                1
Number of electrons                        I               56
Number of alpha electrons                  I               28
Number of beta electrons                   I               28
Number of basis functions                  I              192
Number of independent functions            I              192
Number of point charges in /Mol/           I                0
Number of translation vectors              I                0
Atomic numbers                             I   N=          16
           6           6           6           1           1           1
           1           1           1           6           1           6
           1           6           7           5
Nuclear charges                            R   N=          16
  6.00000000E+00  6.00000000E+00  6.00000000E+00  1.00000000E+00  1.00000000E+00
  1.00000000E+00  1.00000000E+00  1.00000000E+00  1.00000000E+00  6.00000000E+00
  1.00000000E+00  6.00000000E+00  1.00000000E+00  6.00000000E+00  7.00000000E+00
  5.00000000E+00
Current cartesian coordinates              R   N=          48
  1.36699008E-01 -3.09200390E+00  5.74287769E-01  2.44706683E+00  2.41982643E+00
  5.74733745E-01  3.36555687E+00  2.14313840E-01 -3.77977350E-01 -3.46166268E+00
 -3.40117443E+00  1.96722757E+00 -5.48519464E-01  5.47479548E+00  1.57263197E+00
  3.94040400E+00  3.75778276E+00  1.03431514E+00  5.37221358E+00  8.68537024E-02
 -8.26792974E-01  3.31652037E+00 -3.36454209E+00 -1.55392935E+00  6.85233590E-01
 -4.79327520E+00  1.59080547E+00 -3.44514458E+00 -1.37388758E-01 -5.38683439E-01
 -5.27405176E+00 -6.08404885E-01 -1.36412337E+00 -2.60538997E+00  2.24936179E+00
 -6.58635695E-01 -3.83282189E+00  3.57148600E+00 -1.65878081E+00 -2.23344085E+00
 -2.26532998E+00  7.71053612E-01  2.14307037E+00 -2.02622671E+00 -8.69381732E-01
 -2.38181081E-01  3.42547631E+00  6.51129703E-01
Number of symbols in /Mol/                 I                0
Force Field                                I                0
Atom Types                                 C   N=          16
                                                            
                                                            
                                                            
            
Int Atom Types                             I   N=          16
           0           0           0           0           0           0
           0           0           0           0           0           0
           0           0           0           0
MM charges                                 R   N=          16
  0.00000000E+00  0.00000000E+00  0.00000000E+00  0.00000000E+00  0.00000000E+00
  0.00000000E+00  0.00000000E+00  0.00000000E+00  0.00000000E+00  0.00000000E+00
  0.00000000E+00  0.00000000E+00  0.00000000E+00  0.00000000E+00  0.00000000E+00
  0.00000000E+00
Integer atomic weights                     I   N=          16
          12          12          12           1           1           1
           1           1           1          12           1          12
           1          12          14          11
Real atomic weights                        R   N=          16
  1.20000000E+01  1.20000000E+01  1.20000000E+01  1.00782504E+00  1.00782504E+00
  1.00782504E+00  1.00782504E+00  1.00782504E+00  1.00782504E+00  1.20000000E+01
  1.00782504E+00  1.20000000E+01  1.00782504E+00  1.20000000E+01  1.40030740E+01
  1.10093053E+01
Atom fragment info                         I   N=          16
           0           0           0           0           0           0
           0           0           0           0           0           0
           0           0           0           0
Atom residue num                           I   N=          16
           0           0           0           0           0           0
           0           0           0           0           0           0
           0           0           0           0
Nuclear spins                              I   N=          16
           0           0           0           1           1           1
           1           1           1           0           1           0
           1           0           2           3
Nuclear ZEff                               R   N=          16
 -3.60000000E+00 -3.60000000E+00 -3.60000000E+00 -1.00000000E+00 -1.00000000E+00
 -1.00000000E+00 -1.00000000E+00 -1.00000000E+00 -1.00000000E+00 -3.60000000E+00
 -1.00000000E+00 -3.60000000E+00 -1.00000000E+00 -3.60000000E+00 -4.55000000E+00
 -2.75000000E+00
Nuclear ZNuc                               R   N=          16
  6.00000000E+00  6.00000000E+00  6.00000000E+00  1.00000000E+00  1.00000000E+00
  1.00000000E+00  1.00000000E+00  1.00000000E+00  1.00000000E+00  6.00000000E+00
  1.00000000E+00  6.00000000E+00  1.00000000E+00  6.00000000E+00  7.00000000E+00
  5.00000000E+00
Nuclear QMom                               R   N=          16
  0.00000000E+00  0.00000000E+00  0.00000000E+00  0.00000000E+00  0.00000000E+00
  0.00000000E+00  0.00000000E+00  0.00000000E+00  0.00000000E+00  0.00000000E+00
  0.00000000E+00  0.00000000E+00  0.00000000E+00  0.00000000E+00  2.04400000E+00
  4.05900000E+00
Nuclear GFac                               R   N=          16
  0.00000000E+00  0.00000000E+00  0.00000000E+00  2.79284600E+00  2.79284600E+00
  2.79284600E+00  2.79284600E+00  2.79284600E+00  2.79284600E+00  0.00000000E+00
  2.79284600E+00  0.00000000E+00  2.79284600E+00  0.00000000E+00  4.03761000E-01
  2.68863700E+00
MicOpt                                     I   N=          16
          -1          -1          -1          -1          -1          -1
          -1          -1          -1          -1          -1          -1
          -1          -1          -1          -1
Number of residues                         I                0
Number of secondary structures             I                0
Number of contracted shells                I               72
Number of primitive shells                 I              144
Pure/Cartesian d shells                    I                0
Pure/Cartesian f shells                    I                0
Highest angular momentum                   I                2
Largest degree of contraction              I                6
Shell types                                I   N=          72
           0          -1          -1          -1          -2           0
          -1          -1          -1          -2           0          -1
          -1          -1          -2           0           0           0
           1           0           0           0           1           0
           0           0           1           0           0           0
           1           0           0           0           1           0
           0           0           1           0          -1          -1
          -1          -2           0           0           0           1
           0          -1          -1          -1          -2           0
           0           0           1           0          -1          -1
          -1          -2           0          -1          -1          -1
          -2           0          -1          -1          -1          -2
Number of primitives per shell             I   N=          72
           6           3           1           1           1           6
           3           1           1           1           6           3
           1           1           1           3           1           1
           1           3           1           1           1           3
           1           1           1           3           1           1
           1           3           1           1           1           3
           1           1           1           6           3           1
           1           1           3           1           1           1
           6           3           1           1           1           3
           1           1           1           6           3           1
           1           1           6           3           1           1
           1           6           3           1           1           1
Shell to atom map                          I   N=          72
           1           1           1           1           1           2
           2           2           2           2           3           3
           3           3           3           4           4           4
           4           5           5           5           5           6
           6           6           6           7           7           7
           7           8           8           8           8           9
           9           9           9          10          10          10
          10          10          11          11          11          11
          12          12          12          12          12          13
          13          13          13          14          14          14
          14          14          15          15          15          15
          15          16          16          16          16          16
Primitive exponents                        R   N=         144
  4.56324000E+03  6.82024000E+02  1.54973000E+02  4.44553000E+01  1.30290000E+01
  1.82773000E+00  2.09642000E+01  4.80331000E+00  1.45933000E+00  4.83456000E-01
  1.45585000E-01  6.26000000E-01  4.56324000E+03  6.82024000E+02  1.54973000E+02
  4.44553000E+01  1.30290000E+01  1.82773000E+00  2.09642000E+01  4.80331000E+00
  1.45933000E+00  4.83456000E-01  1.45585000E-01  6.26000000E-01  4.56324000E+03
  6.82024000E+02  1.54973000E+02  4.44553000E+01  1.30290000E+01  1.82773000E+00
  2.09642000E+01  4.80331000E+00  1.45933000E+00  4.83456000E-01  1.45585000E-01
  6.26000000E-01  3.38650000E+01  5.09479000E+00  1.15879000E+00  3.25840000E-01
  1.02741000E-01  7.50000000E-01  3.38650000E+01  5.09479000E+00  1.15879000E+00
  3.25840000E-01  1.02741000E-01  7.50000000E-01  3.38650000E+01  5.09479000E+00
  1.15879000E+00  3.25840000E-01  1.02741000E-01  7.50000000E-01  3.38650000E+01
  5.09479000E+00  1.15879000E+00  3.25840000E-01  1.02741000E-01  7.50000000E-01
  3.38650000E+01  5.09479000E+00  1.15879000E+00  3.25840000E-01  1.02741000E-01
  7.50000000E-01  3.38650000E+01  5.09479000E+00  1.15879000E+00  3.25840000E-01
  1.02741000E-01  7.50000000E-01  4.56324000E+03  6.82024000E+02  1.54973000E+02
  4.44553000E+01  1.30290000E+01  1.82773000E+00  2.09642000E+01  4.80331000E+00
  1.45933000E+00  4.83456000E-01  1.45585000E-01  6.26000000E-01  3.38650000E+01
  5.09479000E+00  1.15879000E+00  3.25840000E-01  1.02741000E-01  7.50000000E-01
  4.56324000E+03  6.82024000E+02  1.54973000E+02  4.44553000E+01  1.30290000E+01
  1.82773000E+00  2.09642000E+01  4.80331000E+00  1.45933000E+00  4.83456000E-01
  1.45585000E-01  6.26000000E-01  3.38650000E+01  5.09479000E+00  1.15879000E+00
  3.25840000E-01  1.02741000E-01  7.50000000E-01  4.56324000E+03  6.82024000E+02
  1.54973000E+02  4.44553000E+01  1.30290000E+01  1.82773000E+00  2.09642000E+01
  4.80331000E+00  1.45933000E+00  4.83456000E-01  1.45585000E-01  6.26000000E-01
  6.29348000E+03  9.49044000E+02  2.18776000E+02  6.36916000E+01  1.88282000E+01
  2.72023000E+00  3.06331000E+01  7.02614000E+00  2.11205000E+00  6.84009000E-01
  2.00878000E-01  9.13000000E-01  2.85889000E+03  4.28140000E+02  9.75282000E+01
  2.79693000E+01  8.21577000E+00  1.11278000E+00  1.32415000E+01  3.00166000E+00
  9.12856000E-01  3.15454000E-01  9.88563000E-02  4.01000000E-01
Contraction coefficients                   R   N=         144
  1.96665025E-03  1.52306019E-02  7.61269097E-02  2.60801033E-01  6.16462078E-01
  2.21006028E-01  1.14660081E-01  9.19999648E-01 -3.03068213E-03  1.00000000E+00
  1.00000000E+00  1.00000000E+00  1.96665025E-03  1.52306019E-02  7.61269097E-02
  2.60801033E-01  6.16462078E-01  2.21006028E-01  1.14660081E-01  9.19999648E-01
 -3.03068213E-03  1.00000000E+00  1.00000000E+00  1.00000000E+00  1.96665025E-03
  1.52306019E-02  7.61269097E-02  2.60801033E-01  6.16462078E-01  2.21006028E-01
  1.14660081E-01  9.19999648E-01 -3.03068213E-03  1.00000000E+00  1.00000000E+00
  1.00000000E+00  2.54938145E-02  1.90373109E-01  8.52161486E-01  1.00000000E+00
  1.00000000E+00  1.00000000E+00  2.54938145E-02  1.90373109E-01  8.52161486E-01
  1.00000000E+00  1.00000000E+00  1.00000000E+00  2.54938145E-02  1.90373109E-01
  8.52161486E-01  1.00000000E+00  1.00000000E+00  1.00000000E+00  2.54938145E-02
  1.90373109E-01  8.52161486E-01  1.00000000E+00  1.00000000E+00  1.00000000E+00
  2.54938145E-02  1.90373109E-01  8.52161486E-01  1.00000000E+00  1.00000000E+00
  1.00000000E+00  2.54938145E-02  1.90373109E-01  8.52161486E-01  1.00000000E+00
  1.00000000E+00  1.00000000E+00  1.96665025E-03  1.52306019E-02  7.61269097E-02
  2.60801033E-01  6.16462078E-01  2.21006028E-01  1.14660081E-01  9.19999648E-01
 -3.03068213E-03  1.00000000E+00  1.00000000E+00  1.00000000E+00  2.54938145E-02
  1.90373109E-01  8.52161486E-01  1.00000000E+00  1.00000000E+00  1.00000000E+00
  1.96665025E-03  1.52306019E-02  7.61269097E-02  2.60801033E-01  6.16462078E-01
  2.21006028E-01  1.14660081E-01  9.19999648E-01 -3.03068213E-03  1.00000000E+00
  1.00000000E+00  1.00000000E+00  2.54938145E-02  1.90373109E-01  8.52161486E-01
  1.00000000E+00  1.00000000E+00  1.00000000E+00  1.96665025E-03  1.52306019E-02
  7.61269097E-02  2.60801033E-01  6.16462078E-01  2.21006028E-01  1.14660081E-01
  9.19999648E-01 -3.03068213E-03  1.00000000E+00  1.00000000E+00  1.00000000E+00
  1.96978815E-03  1.49612859E-02  7.35005308E-02  2.48936766E-01  6.02459433E-01
  2.56201759E-01  1.11906080E-01  9.21666655E-01 -2.56919183E-03  1.00000000E+00
  1.00000000E+00  1.00000000E+00  2.15374907E-03  1.65822928E-02  8.21869644E-02
  2.76617880E-01  6.29315727E-01  1.73769925E-01  1.17442942E-01  9.18001549E-01
 -2.65104870E-03  1.00000000E+00  1.00000000E+00  1.00000000E+00
P(S=P) Contraction coefficients            R   N=         144
  0.00000000E+00  0.00000000E+00  0.00000000E+00  0.00000000E+00  0.00000000E+00
  0.00000000E+00  4.02486927E-02  2.37593957E-01  8.15853851E-01  1.00000000E+00
  1.00000000E+00  0.00000000E+00  0.00000000E+00  0.00000000E+00  0.00000000E+00
  0.00000000E+00  0.00000000E+00  0.00000000E+00  4.02486927E-02  2.37593957E-01
  8.15853851E-01  1.00000000E+00  1.00000000E+00  0.00000000E+00  0.00000000E+00
  0.00000000E+00  0.00000000E+00  0.00000000E+00  0.00000000E+00  0.00000000E+00
  4.02486927E-02  2.37593957E-01  8.15853851E-01  1.00000000E+00  1.00000000E+00
  0.00000000E+00  0.00000000E+00  0.00000000E+00  0.00000000E+00  0.00000000E+00
  0.00000000E+00  0.00000000E+00  0.00000000E+00  0.00000000E+00  0.00000000E+00
  0.00000000E+00  0.00000000E+00  0.00000000E+00  0.00000000E+00  0.00000000E+00
  0.00000000E+00  0.00000000E+00  0.00000000E+00  0.00000000E+00  0.00000000E+00
  0.00000000E+00  0.00000000E+00  0.00000000E+00  0.00000000E+00  0.00000000E+00
  0.00000000E+00  0.00000000E+00  0.00000000E+00  0.00000000E+00  0.00000000E+00
  0.00000000E+00  0.00000000E+00  0.00000000E+00  0.00000000E+00  0.00000000E+00
  0.00000000E+00  0.00000000E+00  0.00000000E+00  0.00000000E+00  0.00000000E+00
  0.00000000E+00  0.00000000E+00  0.00000000E+00  4.02486927E-02  2.37593957E-01
  8.15853851E-01  1.00000000E+00  1.00000000E+00  0.00000000E+00  0.00000000E+00
  0.00000000E+00  0.00000000E+00  0.00000000E+00  0.00000000E+00  0.00000000E+00
  0.00000000E+00  0.00000000E+00  0.00000000E+00  0.00000000E+00  0.00000000E+00
  0.00000000E+00  4.02486927E-02  2.37593957E-01  8.15853851E-01  1.00000000E+00
  1.00000000E+00  0.00000000E+00  0.00000000E+00  0.00000000E+00  0.00000000E+00
  0.00000000E+00  0.00000000E+00  0.00000000E+00  0.00000000E+00  0.00000000E+00
  0.00000000E+00  0.00000000E+00  0.00000000E+00  0.00000000E+00  4.02486927E-02
  2.37593957E-01  8.15853851E-01  1.00000000E+00  1.00000000E+00  0.00000000E+00
  0.00000000E+00  0.00000000E+00  0.00000000E+00  0.00000000E+00  0.00000000E+00
  0.00000000E+00  3.83119186E-02  2.37403116E-01  8.17592398E-01  1.00000000E+00
  1.00000000E+00  0.00000000E+00  0.00000000E+00  0.00000000E+00  0.00000000E+00
  0.00000000E+00  0.00000000E+00  0.00000000E+00  4.18099989E-02  2.36574994E-01
  8.16213978E-01  1.00000000E+00  1.00000000E+00  0.00000000E+00
Coordinates of each shell                  R   N=         216
  1.36699008E-01 -3.09200390E+00  5.74287769E-01  1.36699008E-01 -3.09200390E+00
  5.74287769E-01  1.36699008E-01 -3.09200390E+00  5.74287769E-01  1.36699008E-01
 -3.09200390E+00  5.74287769E-01  1.36699008E-01 -3.09200390E+00  5.74287769E-01
  2.44706683E+00  2.41982643E+00  5.74733745E-01  2.44706683E+00  2.41982643E+00
  5.74733745E-01  2.44706683E+00  2.41982643E+00  5.74733745E-01  2.44706683E+00
  2.41982643E+00  5.74733745E-01  2.44706683E+00  2.41982643E+00  5.74733745E-01
  3.36555687E+00  2.14313840E-01 -3.77977350E-01  3.36555687E+00  2.14313840E-01
 -3.77977350E-01  3.36555687E+00  2.14313840E-01 -3.77977350E-01  3.36555687E+00
  2.14313840E-01 -3.77977350E-01  3.36555687E+00  2.14313840E-01 -3.77977350E-01
 -3.46166268E+00 -3.40117443E+00  1.96722757E+00 -3.46166268E+00 -3.40117443E+00
  1.96722757E+00 -3.46166268E+00 -3.40117443E+00  1.96722757E+00 -3.46166268E+00
 -3.40117443E+00  1.96722757E+00 -5.48519464E-01  5.47479548E+00  1.57263197E+00
 -5.48519464E-01  5.47479548E+00  1.57263197E+00 -5.48519464E-01  5.47479548E+00
  1.57263197E+00 -5.48519464E-01  5.47479548E+00  1.57263197E+00  3.94040400E+00
  3.75778276E+00  1.03431514E+00  3.94040400E+00  3.75778276E+00  1.03431514E+00
  3.94040400E+00  3.75778276E+00  1.03431514E+00  3.94040400E+00  3.75778276E+00
  1.03431514E+00  5.37221358E+00  8.68537024E-02 -8.26792974E-01  5.37221358E+00
  8.68537024E-02 -8.26792974E-01  5.37221358E+00  8.68537024E-02 -8.26792974E-01
  5.37221358E+00  8.68537024E-02 -8.26792974E-01  3.31652037E+00 -3.36454209E+00
 -1.55392935E+00  3.31652037E+00 -3.36454209E+00 -1.55392935E+00  3.31652037E+00
 -3.36454209E+00 -1.55392935E+00  3.31652037E+00 -3.36454209E+00 -1.55392935E+00
  6.85233590E-01 -4.79327520E+00  1.59080547E+00  6.85233590E-01 -4.79327520E+00
  1.59080547E+00  6.85233590E-01 -4.79327520E+00  1.59080547E+00  6.85233590E-01
 -4.79327520E+00  1.59080547E+00 -3.44514458E+00 -1.37388758E-01 -5.38683439E-01
 -3.44514458E+00 -1.37388758E-01 -5.38683439E-01 -3.44514458E+00 -1.37388758E-01
 -5.38683439E-01 -3.44514458E+00 -1.37388758E-01 -5.38683439E-01 -3.44514458E+00
 -1.37388758E-01 -5.38683439E-01 -5.27405176E+00 -6.08404885E-01 -1.36412337E+00
 -5.27405176E+00 -6.08404885E-01 -1.36412337E+00 -5.27405176E+00 -6.08404885E-01
 -1.36412337E+00 -5.27405176E+00 -6.08404885E-01 -1.36412337E+00 -2.60538997E+00
  2.24936179E+00 -6.58635695E-01 -2.60538997E+00  2.24936179E+00 -6.58635695E-01
 -2.60538997E+00  2.24936179E+00 -6.58635695E-01 -2.60538997E+00  2.24936179E+00
 -6.58635695E-01 -2.60538997E+00  2.24936179E+00 -6.58635695E-01 -3.83282189E+00
  3.57148600E+00 -1.65878081E+00 -3.83282189E+00  3.57148600E+00 -1.65878081E+00
 -3.83282189E+00  3.57148600E+00 -1.65878081E+00 -3.83282189E+00  3.57148600E+00
 -1.65878081E+00 -2.23344085E+00 -2.26532998E+00  7.71053612E-01 -2.23344085E+00
 -2.26532998E+00  7.71053612E-01 -2.23344085E+00 -2.26532998E+00  7.71053612E-01
 -2.23344085E+00 -2.26532998E+00  7.71053612E-01 -2.23344085E+00 -2.26532998E+00
  7.71053612E-01  2.14307037E+00 -2.02622671E+00 -8.69381732E-01  2.14307037E+00
 -2.02622671E+00 -8.69381732E-01  2.14307037E+00 -2.02622671E+00 -8.69381732E-01
  2.14307037E+00 -2.02622671E+00 -8.69381732E-01  2.14307037E+00 -2.02622671E+00
 -8.69381732E-01 -2.38181081E-01  3.42547631E+00  6.51129703E-01 -2.38181081E-01
  3.42547631E+00  6.51129703E-01 -2.38181081E-01  3.42547631E+00  6.51129703E-01
 -2.38181081E-01  3.42547631E+00  6.51129703E-01 -2.38181081E-01  3.42547631E+00
  6.51129703E-01
Num ILSW                                   I              100
ILSW                                       I   N=         100
           0           0           0           0           2           0
           0           0           0           0         402          -1
           5           0           0           0           0           0
           0           0           0           0           0           0
           1           1           0           0           0           0
           0           0      100000           0          -1           0
           0           0           0           0           0           0
           0           0           0           1           0           0
           0 -2000000000           1           0           0           0
           0           0           4          52           0           0
           0           0           5           0           0           0
           0           0           0          16           0           1
           0           0           0           0           0           0
           0           0           0           0           0           0
           0           0           0           0           0           0
           0           0           0           0           0           0
           0           0           0           0
Num RLSW                                   I               52
RLSW                                       R   N=          52
  8.00000000E-01  7.20000000E-01  1.00000000E+00  8.10000000E-01  2.00000000E-01
  0.00000000E+00  0.00000000E+00  1.00000000E+00  0.00000000E+00  0.00000000E+00
  0.00000000E+00  0.00000000E+00  1.00000000E+00  0.00000000E+00  0.00000000E+00
  0.00000000E+00  0.00000000E+00  1.00000000E+00  0.00000000E+00  0.00000000E+00
  0.00000000E+00  0.00000000E+00  1.00000000E+00  0.00000000E+00  0.00000000E+00
  0.00000000E+00  0.00000000E+00  1.00000000E+00  0.00000000E+00  0.00000000E+00
  0.00000000E+00  0.00000000E+00  1.00000000E+00  0.00000000E+00  0.00000000E+00
  0.00000000E+00  0.00000000E+00  0.00000000E+00  1.00000000E+00  1.00000000E+00
  0.00000000E+00  1.00000000E+00  0.00000000E+00  0.00000000E+00  0.00000000E+00
  0.00000000E+00  0.00000000E+00  0.00000000E+00  0.00000000E+00  0.00000000E+00
  0.00000000E+00  0.00000000E+00
MxBond                                     I                3
NBond                                      I   N=          16
           3           3           3           1           1           1
           1           1           1           3           1           3
           1           3           3           3
IBond                                      I   N=          48
           9          14          15           3           6          16
           2           7          15          14           0           0
          16           0           0           2           0           0
           3           0           0          15           0           0
           1           0           0          11          12          14
          10           0           0          10          13          16
          12           0           0           1           4          10
           1           3           8           2           5          12
RBond                                      R   N=          48
  1.00000000E+00  2.00000000E+00  1.00000000E+00  2.00000000E+00  1.00000000E+00
  1.00000000E+00  2.00000000E+00  1.00000000E+00  1.00000000E+00  1.00000000E+00
  0.00000000E+00  0.00000000E+00  1.00000000E+00  0.00000000E+00  0.00000000E+00
  1.00000000E+00  0.00000000E+00  0.00000000E+00  1.00000000E+00  0.00000000E+00
  0.00000000E+00  1.00000000E+00  0.00000000E+00  0.00000000E+00  1.00000000E+00
  0.00000000E+00  0.00000000E+00  1.00000000E+00  2.00000000E+00  1.00000000E+00
  1.00000000E+00  0.00000000E+00  0.00000000E+00  2.00000000E+00  1.00000000E+00
  1.00000000E+00  1.00000000E+00  0.00000000E+00  0.00000000E+00  2.00000000E+00
  1.00000000E+00  1.00000000E+00  1.00000000E+00  1.00000000E+00  1.00000000E+00
  1.00000000E+00  1.00000000E+00  1.00000000E+00
Virial Ratio                               R      2.004437992292422E+00
SCF Energy                                 R     -3.130748595815087E+02
Total Energy                               R     -3.130748595815087E+02
RMS Density                                R      8.151043779828038E-09
Job Status                                 I                1
Nuclear derivative order                   I                0
External E-field                           R   N=          35
  0.00000000E+00  0.00000000E+00  0.00000000E+00  0.00000000E+00  0.00000000E+00
  0.00000000E+00  0.00000000E+00  0.00000000E+00  0.00000000E+00  0.00000000E+00
  0.00000000E+00  0.00000000E+00  0.00000000E+00  0.00000000E+00  0.00000000E+00
  0.00000000E+00  0.00000000E+00  0.00000000E+00  0.00000000E+00  0.00000000E+00
  0.00000000E+00  0.00000000E+00  0.00000000E+00  0.00000000E+00  0.00000000E+00
  0.00000000E+00  0.00000000E+00  0.00000000E+00  0.00000000E+00  0.00000000E+00
  0.00000000E+00  0.00000000E+00  0.00000000E+00  0.00000000E+00  0.00000000E+00
IOpCl                                      I                0
IROHF                                      I                0
Alpha Orbital Energies                     R   N=         192
 -1.43535502E+01 -1.02280357E+01 -1.02141393E+01 -1.01799241E+01 -1.01757982E+01
 -1.01447665E+01 -1.01315959E+01 -6.71133367E+00 -9.58084176E-01 -8.04926587E-01
 -7.61075662E-01 -7.17477807E-01 -6.41547644E-01 -5.75282821E-01 -5.55563564E-01
 -5.36566421E-01 -4.81114082E-01 -4.50988818E-01 -4.48698772E-01 -4.39007189E-01
 -4.11254551E-01 -3.68648911E-01 -3.56528164E-01 -3.26342395E-01 -3.03376774E-01
 -2.92356831E-01 -2.56202237E-01 -2.13092764E-01 -6.62972553E-02 -2.31196783E-03
  2.09701470E-02  3.32309996E-02  6.49091272E-02  7.08386455E-02  9.09248528E-02
  9.78938558E-02  1.12839901E-01  1.23639594E-01  1.30556871E-01  1.58425559E-01
  1.95321360E-01  2.27887664E-01  2.31559837E-01  2.63267303E-01  2.99495480E-01
  3.03607583E-01  3.10367580E-01  3.25411946E-01  3.35377445E-01  3.38967485E-01
  3.62258716E-01  3.82155987E-01  4.03512783E-01  4.10118097E-01  4.24519762E-01
  4.33961953E-01  4.49361061E-01  4.60764999E-01  4.73162744E-01  4.81564771E-01
  5.03945057E-01  5.09847232E-01  5.21304240E-01  5.36060278E-01  5.60539924E-01
  5.66586745E-01  5.78640302E-01  5.94157001E-01  6.05267914E-01  6.15383221E-01
  6.26666072E-01  6.36195519E-01  6.39242229E-01  6.62113793E-01  6.74019689E-01
  7.18982540E-01  7.32779031E-01  7.54685449E-01  7.72035686E-01  7.85624364E-01
  7.93455603E-01  8.18235402E-01  8.49528818E-01  8.73392095E-01  9.14668107E-01
  9.29567004E-01  9.71087842E-01  1.01752443E+00  1.02503655E+00  1.06862083E+00
  1.09597915E+00  1.13392729E+00  1.15393386E+00  1.17588411E+00  1.22183451E+00
  1.23398403E+00  1.26126642E+00  1.32760250E+00  1.34083617E+00  1.38228393E+00
  1.42667773E+00  1.44285867E+00  1.45345956E+00  1.47052650E+00  1.49696313E+00
  1.51414699E+00  1.51793448E+00  1.55897127E+00  1.56185685E+00  1.62081909E+00
  1.64346364E+00  1.66731350E+00  1.68055507E+00  1.68556334E+00  1.72273074E+00
  1.72412579E+00  1.75364970E+00  1.76082954E+00  1.78102124E+00  1.79437532E+00
  1.81793735E+00  1.82809314E+00  1.84173611E+00  1.87465175E+00  1.88763302E+00
  1.89251456E+00  1.93288288E+00  1.96407725E+00  1.99044056E+00  2.02905820E+00
  2.05848187E+00  2.06962202E+00  2.09887819E+00  2.11722009E+00  2.17658420E+00
  2.21743207E+00  2.23956515E+00  2.27091057E+00  2.29056653E+00  2.30048846E+00
  2.33295952E+00  2.37893046E+00  2.41936189E+00  2.42735255E+00  2.50200593E+00
  2.53281363E+00  2.55567572E+00  2.56299447E+00  2.56543398E+00  2.57842787E+00
  2.60002082E+00  2.62172294E+00  2.63620646E+00  2.65912963E+00  2.66740100E+00
  2.68321312E+00  2.71462503E+00  2.73321054E+00  2.75571298E+00  2.77876049E+00
  2.78593219E+00  2.84786973E+00  2.88019314E+00  2.90585443E+00  2.94202509E+00
  2.95888947E+00  3.02160796E+00  3.08423006E+00  3.18857557E+00  3.30018532E+00
  3.33784343E+00  3.42651003E+00  3.50100461E+00  3.53265189E+00  3.59107226E+00
  3.62920026E+00  3.79438983E+00  3.90824565E+00  3.94208021E+00  3.99520531E+00
  4.07595016E+00  4.22878332E+00  4.81536095E+00  4.99951715E+00  1.46743034E+01
  2.35946097E+01  2.37258539E+01  2.37672816E+01  2.41776572E+01  2.42165574E+01
  2.42909608E+01  3.55516293E+01
Alpha MO coefficients                      R   N=       36864
  1.23192179E-05 -1.47691955E-05  3.36874342E-04  1.10026660E-04 -2.43994326E-04
  4.83035663E-04 -1.03410279E-03 -7.08264519E-05  5.99803439E-04  1.55585188E-03
  3.28941606E-03  2.65761128E-03 -2.89257312E-03 -2.65261762E-04  5.97328271E-04
  6.57290081E-05 -1.22090334E-04 -6.49634442E-04 -8.13606708E-06  4.33233513E-05
 -5.14981923E-06 -1.28469069E-04 -6.20301882E-05 -1.53756513E-04 -6.80932402E-05
  8.15697368E-04  3.62254981E-04  1.74755519E-04  1.56237224E-03  2.17420313E-04
 -3.10772678E-04 -4.26687344E-05 -3.10962513E-05 -1.24165371E-04  4.16022818E-04
  7.20926086E-05  2.02820548E-06  5.62350476E-05 -1.93636006E-04 -4.51886204E-04
 -1.43896203E-04  2.75919812E-04  5.01151481E-04  1.45480185E-03  5.14397755E-04
  2.26347288E-03 -2.32489854E-03 -2.69821675E-03 -3.91830177E-04  1.45376350E-04
 -3.52295111E-04 -1.95815221E-04  5.87235038E-04 -9.12291206E-04 -2.01274509E-05
 -6.37880174E-04 -2.29199201E-04 -1.57230403E-04  1.69505097E-05  4.06667655E-05