Title Card Required                                                     
SP        RB3LYP                                                      6-311G(d,p)         
Number of atoms                            I               16
Info1-9                                    I   N=           9
          23          23           0           0           0         110
           1          18        -502
Full Title                                 C   N=           2
Title Card Required     
Route                                      C   N=           4
#p b3lyp/6-311g(d,p) nosymm density=current     
Charge                                     I                0
Multiplicity                               I                1
Number of electrons                        I               56
Number of alpha electrons                  I               28
Number of beta electrons                   I               28
Number of basis functions                  I              192
Number of independent functions            I              192
Number of point charges in /Mol/           I                0
Number of translation vectors              I                0
Atomic numbers                             I   N=          16
           6           6           1           1           1           1
           6           6           1           1           6           6
           6           6           1           1
Nuclear charges                            R   N=          16
  6.00000000E+00  6.00000000E+00  1.00000000E+00  1.00000000E+00  1.00000000E+00
  1.00000000E+00  6.00000000E+00  6.00000000E+00  1.00000000E+00  1.00000000E+00
  6.00000000E+00  6.00000000E+00  6.00000000E+00  6.00000000E+00  1.00000000E+00
  1.00000000E+00
Current cartesian coordinates              R   N=          48
  1.26446866E+00  2.95658235E+00  7.09010124E-01 -1.26446866E+00  2.95658235E+00
  7.09010124E-01  2.21315086E+00 -4.45200767E+00  1.75724121E+00 -2.21315086E+00
 -4.45200767E+00  1.75724121E+00 -4.45200767E+00 -2.21315086E+00 -1.75724121E+00
 -4.45200767E+00  2.21315086E+00 -1.75724121E+00 -2.95658235E+00  1.26446866E+00
 -7.09010124E-01 -2.95658235E+00 -1.26446866E+00 -7.09010124E-01  2.21315086E+00
  4.45200767E+00  1.75724121E+00 -2.21315086E+00  4.45200767E+00  1.75724121E+00
  2.95658235E+00  1.26446866E+00 -7.09010124E-01  2.95658235E+00 -1.26446866E+00
 -7.09010124E-01  1.26446866E+00 -2.95658235E+00  7.09010124E-01 -1.26446866E+00
 -2.95658235E+00  7.09010124E-01  4.45200767E+00  2.21315086E+00 -1.75724121E+00
  4.45200767E+00 -2.21315086E+00 -1.75724121E+00
Number of symbols in /Mol/                 I                0
Force Field                                I                0
Atom Types                                 C   N=          16
                                                            
                                                            
                                                            
            
Int Atom Types                             I   N=          16
           0           0           0           0           0           0
           0           0           0           0           0           0
           0           0           0           0
MM charges                                 R   N=          16
  0.00000000E+00  0.00000000E+00  0.00000000E+00  0.00000000E+00  0.00000000E+00
  0.00000000E+00  0.00000000E+00  0.00000000E+00  0.00000000E+00  0.00000000E+00
  0.00000000E+00  0.00000000E+00  0.00000000E+00  0.00000000E+00  0.00000000E+00
  0.00000000E+00
Integer atomic weights                     I   N=          16
          12          12           1           1           1           1
          12          12           1           1          12          12
          12          12           1           1
Real atomic weights                        R   N=          16
  1.20000000E+01  1.20000000E+01  1.00782504E+00  1.00782504E+00  1.00782504E+00
  1.00782504E+00  1.20000000E+01  1.20000000E+01  1.00782504E+00  1.00782504E+00
  1.20000000E+01  1.20000000E+01  1.20000000E+01  1.20000000E+01  1.00782504E+00
  1.00782504E+00
Atom fragment info                         I   N=          16
           0           0           0           0           0           0
           0           0           0           0           0           0
           0           0           0           0
Atom residue num                           I   N=          16
           0           0           0           0           0           0
           0           0           0           0           0           0
           0           0           0           0
Nuclear spins                              I   N=          16
           0           0           1           1           1           1
           0           0           1           1           0           0
           0           0           1           1
Nuclear ZEff                               R   N=          16
 -3.60000000E+00 -3.60000000E+00 -1.00000000E+00 -1.00000000E+00 -1.00000000E+00
 -1.00000000E+00 -3.60000000E+00 -3.60000000E+00 -1.00000000E+00 -1.00000000E+00
 -3.60000000E+00 -3.60000000E+00 -3.60000000E+00 -3.60000000E+00 -1.00000000E+00
 -1.00000000E+00
Nuclear ZNuc                               R   N=          16
  6.00000000E+00  6.00000000E+00  1.00000000E+00  1.00000000E+00  1.00000000E+00
  1.00000000E+00  6.00000000E+00  6.00000000E+00  1.00000000E+00  1.00000000E+00
  6.00000000E+00  6.00000000E+00  6.00000000E+00  6.00000000E+00  1.00000000E+00
  1.00000000E+00
Nuclear QMom                               R   N=          16
  0.00000000E+00  0.00000000E+00  0.00000000E+00  0.00000000E+00  0.00000000E+00
  0.00000000E+00  0.00000000E+00  0.00000000E+00  0.00000000E+00  0.00000000E+00
  0.00000000E+00  0.00000000E+00  0.00000000E+00  0.00000000E+00  0.00000000E+00
  0.00000000E+00
Nuclear GFac                               R   N=          16
  0.00000000E+00  0.00000000E+00  2.79284600E+00  2.79284600E+00  2.79284600E+00
  2.79284600E+00  0.00000000E+00  0.00000000E+00  2.79284600E+00  2.79284600E+00
  0.00000000E+00  0.00000000E+00  0.00000000E+00  0.00000000E+00  2.79284600E+00
  2.79284600E+00
MicOpt                                     I   N=          16
          -1          -1          -1          -1          -1          -1
          -1          -1          -1          -1          -1          -1
          -1          -1          -1          -1
Number of residues                         I                0
Number of secondary structures             I                0
Number of contracted shells                I               72
Number of primitive shells                 I              144
Pure/Cartesian d shells                    I                0
Pure/Cartesian f shells                    I                0
Highest angular momentum                   I                2
Largest degree of contraction              I                6
Shell types                                I   N=          72
           0          -1          -1          -1          -2           0
          -1          -1          -1          -2           0           0
           0           1           0           0           0           1
           0           0           0           1           0           0
           0           1           0          -1          -1          -1
          -2           0          -1          -1          -1          -2
           0           0           0           1           0           0
           0           1           0          -1          -1          -1
          -2           0          -1          -1          -1          -2
           0          -1          -1          -1          -2           0
          -1          -1          -1          -2           0           0
           0           1           0           0           0           1
Number of primitives per shell             I   N=          72
           6           3           1           1           1           6
           3           1           1           1           3           1
           1           1           3           1           1           1
           3           1           1           1           3           1
           1           1           6           3           1           1
           1           6           3           1           1           1
           3           1           1           1           3           1
           1           1           6           3           1           1
           1           6           3           1           1           1
           6           3           1           1           1           6
           3           1           1           1           3           1
           1           1           3           1           1           1
Shell to atom map                          I   N=          72
           1           1           1           1           1           2
           2           2           2           2           3           3
           3           3           4           4           4           4
           5           5           5           5           6           6
           6           6           7           7           7           7
           7           8           8           8           8           8
           9           9           9           9          10          10
          10          10          11          11          11          11
          11          12          12          12          12          12
          13          13          13          13          13          14
          14          14          14          14          15          15
          15          15          16          16          16          16
Primitive exponents                        R   N=         144
  4.56324000E+03  6.82024000E+02  1.54973000E+02  4.44553000E+01  1.30290000E+01
  1.82773000E+00  2.09642000E+01  4.80331000E+00  1.45933000E+00  4.83456000E-01
  1.45585000E-01  6.26000000E-01  4.56324000E+03  6.82024000E+02  1.54973000E+02
  4.44553000E+01  1.30290000E+01  1.82773000E+00  2.09642000E+01  4.80331000E+00
  1.45933000E+00  4.83456000E-01  1.45585000E-01  6.26000000E-01  3.38650000E+01
  5.09479000E+00  1.15879000E+00  3.25840000E-01  1.02741000E-01  7.50000000E-01
  3.38650000E+01  5.09479000E+00  1.15879000E+00  3.25840000E-01  1.02741000E-01
  7.50000000E-01  3.38650000E+01  5.09479000E+00  1.15879000E+00  3.25840000E-01
  1.02741000E-01  7.50000000E-01  3.38650000E+01  5.09479000E+00  1.15879000E+00
  3.25840000E-01  1.02741000E-01  7.50000000E-01  4.56324000E+03  6.82024000E+02
  1.54973000E+02  4.44553000E+01  1.30290000E+01  1.82773000E+00  2.09642000E+01
  4.80331000E+00  1.45933000E+00  4.83456000E-01  1.45585000E-01  6.26000000E-01
  4.56324000E+03  6.82024000E+02  1.54973000E+02  4.44553000E+01  1.30290000E+01
  1.82773000E+00  2.09642000E+01  4.80331000E+00  1.45933000E+00  4.83456000E-01
  1.45585000E-01  6.26000000E-01  3.38650000E+01  5.09479000E+00  1.15879000E+00
  3.25840000E-01  1.02741000E-01  7.50000000E-01  3.38650000E+01  5.09479000E+00
  1.15879000E+00  3.25840000E-01  1.02741000E-01  7.50000000E-01  4.56324000E+03
  6.82024000E+02  1.54973000E+02  4.44553000E+01  1.30290000E+01  1.82773000E+00
  2.09642000E+01  4.80331000E+00  1.45933000E+00  4.83456000E-01  1.45585000E-01
  6.26000000E-01  4.56324000E+03  6.82024000E+02  1.54973000E+02  4.44553000E+01
  1.30290000E+01  1.82773000E+00  2.09642000E+01  4.80331000E+00  1.45933000E+00
  4.83456000E-01  1.45585000E-01  6.26000000E-01  4.56324000E+03  6.82024000E+02
  1.54973000E+02  4.44553000E+01  1.30290000E+01  1.82773000E+00  2.09642000E+01
  4.80331000E+00  1.45933000E+00  4.83456000E-01  1.45585000E-01  6.26000000E-01
  4.56324000E+03  6.82024000E+02  1.54973000E+02  4.44553000E+01  1.30290000E+01
  1.82773000E+00  2.09642000E+01  4.80331000E+00  1.45933000E+00  4.83456000E-01
  1.45585000E-01  6.26000000E-01  3.38650000E+01  5.09479000E+00  1.15879000E+00
  3.25840000E-01  1.02741000E-01  7.50000000E-01  3.38650000E+01  5.09479000E+00
  1.15879000E+00  3.25840000E-01  1.02741000E-01  7.50000000E-01
Contraction coefficients                   R   N=         144
  1.96665025E-03  1.52306019E-02  7.61269097E-02  2.60801033E-01  6.16462078E-01
  2.21006028E-01  1.14660081E-01  9.19999648E-01 -3.03068213E-03  1.00000000E+00
  1.00000000E+00  1.00000000E+00  1.96665025E-03  1.52306019E-02  7.61269097E-02
  2.60801033E-01  6.16462078E-01  2.21006028E-01  1.14660081E-01  9.19999648E-01
 -3.03068213E-03  1.00000000E+00  1.00000000E+00  1.00000000E+00  2.54938145E-02
  1.90373109E-01  8.52161486E-01  1.00000000E+00  1.00000000E+00  1.00000000E+00
  2.54938145E-02  1.90373109E-01  8.52161486E-01  1.00000000E+00  1.00000000E+00
  1.00000000E+00  2.54938145E-02  1.90373109E-01  8.52161486E-01  1.00000000E+00
  1.00000000E+00  1.00000000E+00  2.54938145E-02  1.90373109E-01  8.52161486E-01
  1.00000000E+00  1.00000000E+00  1.00000000E+00  1.96665025E-03  1.52306019E-02
  7.61269097E-02  2.60801033E-01  6.16462078E-01  2.21006028E-01  1.14660081E-01
  9.19999648E-01 -3.03068213E-03  1.00000000E+00  1.00000000E+00  1.00000000E+00
  1.96665025E-03  1.52306019E-02  7.61269097E-02  2.60801033E-01  6.16462078E-01
  2.21006028E-01  1.14660081E-01  9.19999648E-01 -3.03068213E-03  1.00000000E+00
  1.00000000E+00  1.00000000E+00  2.54938145E-02  1.90373109E-01  8.52161486E-01
  1.00000000E+00  1.00000000E+00  1.00000000E+00  2.54938145E-02  1.90373109E-01
  8.52161486E-01  1.00000000E+00  1.00000000E+00  1.00000000E+00  1.96665025E-03
  1.52306019E-02  7.61269097E-02  2.60801033E-01  6.16462078E-01  2.21006028E-01
  1.14660081E-01  9.19999648E-01 -3.03068213E-03  1.00000000E+00  1.00000000E+00
  1.00000000E+00  1.96665025E-03  1.52306019E-02  7.61269097E-02  2.60801033E-01
  6.16462078E-01  2.21006028E-01  1.14660081E-01  9.19999648E-01 -3.03068213E-03
  1.00000000E+00  1.00000000E+00  1.00000000E+00  1.96665025E-03  1.52306019E-02
  7.61269097E-02  2.60801033E-01  6.16462078E-01  2.21006028E-01  1.14660081E-01
  9.19999648E-01 -3.03068213E-03  1.00000000E+00  1.00000000E+00  1.00000000E+00
  1.96665025E-03  1.52306019E-02  7.61269097E-02  2.60801033E-01  6.16462078E-01
  2.21006028E-01  1.14660081E-01  9.19999648E-01 -3.03068213E-03  1.00000000E+00
  1.00000000E+00  1.00000000E+00  2.54938145E-02  1.90373109E-01  8.52161486E-01
  1.00000000E+00  1.00000000E+00  1.00000000E+00  2.54938145E-02  1.90373109E-01
  8.52161486E-01  1.00000000E+00  1.00000000E+00  1.00000000E+00
P(S=P) Contraction coefficients            R   N=         144
  0.00000000E+00  0.00000000E+00  0.00000000E+00  0.00000000E+00  0.00000000E+00
  0.00000000E+00  4.02486927E-02  2.37593957E-01  8.15853851E-01  1.00000000E+00
  1.00000000E+00  0.00000000E+00  0.00000000E+00  0.00000000E+00  0.00000000E+00
  0.00000000E+00  0.00000000E+00  0.00000000E+00  4.02486927E-02  2.37593957E-01
  8.15853851E-01  1.00000000E+00  1.00000000E+00  0.00000000E+00  0.00000000E+00
  0.00000000E+00  0.00000000E+00  0.00000000E+00  0.00000000E+00  0.00000000E+00
  0.00000000E+00  0.00000000E+00  0.00000000E+00  0.00000000E+00  0.00000000E+00
  0.00000000E+00  0.00000000E+00  0.00000000E+00  0.00000000E+00  0.00000000E+00
  0.00000000E+00  0.00000000E+00  0.00000000E+00  0.00000000E+00  0.00000000E+00
  0.00000000E+00  0.00000000E+00  0.00000000E+00  0.00000000E+00  0.00000000E+00
  0.00000000E+00  0.00000000E+00  0.00000000E+00  0.00000000E+00  4.02486927E-02
  2.37593957E-01  8.15853851E-01  1.00000000E+00  1.00000000E+00  0.00000000E+00
  0.00000000E+00  0.00000000E+00  0.00000000E+00  0.00000000E+00  0.00000000E+00
  0.00000000E+00  4.02486927E-02  2.37593957E-01  8.15853851E-01  1.00000000E+00
  1.00000000E+00  0.00000000E+00  0.00000000E+00  0.00000000E+00  0.00000000E+00
  0.00000000E+00  0.00000000E+00  0.00000000E+00  0.00000000E+00  0.00000000E+00
  0.00000000E+00  0.00000000E+00  0.00000000E+00  0.00000000E+00  0.00000000E+00
  0.00000000E+00  0.00000000E+00  0.00000000E+00  0.00000000E+00  0.00000000E+00
  4.02486927E-02  2.37593957E-01  8.15853851E-01  1.00000000E+00  1.00000000E+00
  0.00000000E+00  0.00000000E+00  0.00000000E+00  0.00000000E+00  0.00000000E+00
  0.00000000E+00  0.00000000E+00  4.02486927E-02  2.37593957E-01  8.15853851E-01
  1.00000000E+00  1.00000000E+00  0.00000000E+00  0.00000000E+00  0.00000000E+00
  0.00000000E+00  0.00000000E+00  0.00000000E+00  0.00000000E+00  4.02486927E-02
  2.37593957E-01  8.15853851E-01  1.00000000E+00  1.00000000E+00  0.00000000E+00
  0.00000000E+00  0.00000000E+00  0.00000000E+00  0.00000000E+00  0.00000000E+00
  0.00000000E+00  4.02486927E-02  2.37593957E-01  8.15853851E-01  1.00000000E+00
  1.00000000E+00  0.00000000E+00  0.00000000E+00  0.00000000E+00  0.00000000E+00
  0.00000000E+00  0.00000000E+00  0.00000000E+00  0.00000000E+00  0.00000000E+00
  0.00000000E+00  0.00000000E+00  0.00000000E+00  0.00000000E+00
Coordinates of each shell                  R   N=         216
  1.26446866E+00  2.95658235E+00  7.09010124E-01  1.26446866E+00  2.95658235E+00
  7.09010124E-01  1.26446866E+00  2.95658235E+00  7.09010124E-01  1.26446866E+00
  2.95658235E+00  7.09010124E-01  1.26446866E+00  2.95658235E+00  7.09010124E-01
 -1.26446866E+00  2.95658235E+00  7.09010124E-01 -1.26446866E+00  2.95658235E+00
  7.09010124E-01 -1.26446866E+00  2.95658235E+00  7.09010124E-01 -1.26446866E+00
  2.95658235E+00  7.09010124E-01 -1.26446866E+00  2.95658235E+00  7.09010124E-01
  2.21315086E+00 -4.45200767E+00  1.75724121E+00  2.21315086E+00 -4.45200767E+00
  1.75724121E+00  2.21315086E+00 -4.45200767E+00  1.75724121E+00  2.21315086E+00
 -4.45200767E+00  1.75724121E+00 -2.21315086E+00 -4.45200767E+00  1.75724121E+00
 -2.21315086E+00 -4.45200767E+00  1.75724121E+00 -2.21315086E+00 -4.45200767E+00
  1.75724121E+00 -2.21315086E+00 -4.45200767E+00  1.75724121E+00 -4.45200767E+00
 -2.21315086E+00 -1.75724121E+00 -4.45200767E+00 -2.21315086E+00 -1.75724121E+00
 -4.45200767E+00 -2.21315086E+00 -1.75724121E+00 -4.45200767E+00 -2.21315086E+00
 -1.75724121E+00 -4.45200767E+00  2.21315086E+00 -1.75724121E+00 -4.45200767E+00
  2.21315086E+00 -1.75724121E+00 -4.45200767E+00  2.21315086E+00 -1.75724121E+00
 -4.45200767E+00  2.21315086E+00 -1.75724121E+00 -2.95658235E+00  1.26446866E+00
 -7.09010124E-01 -2.95658235E+00  1.26446866E+00 -7.09010124E-01 -2.95658235E+00
  1.26446866E+00 -7.09010124E-01 -2.95658235E+00  1.26446866E+00 -7.09010124E-01
 -2.95658235E+00  1.26446866E+00 -7.09010124E-01 -2.95658235E+00 -1.26446866E+00
 -7.09010124E-01 -2.95658235E+00 -1.26446866E+00 -7.09010124E-01 -2.95658235E+00
 -1.26446866E+00 -7.09010124E-01 -2.95658235E+00 -1.26446866E+00 -7.09010124E-01
 -2.95658235E+00 -1.26446866E+00 -7.09010124E-01  2.21315086E+00  4.45200767E+00
  1.75724121E+00  2.21315086E+00  4.45200767E+00  1.75724121E+00  2.21315086E+00
  4.45200767E+00  1.75724121E+00  2.21315086E+00  4.45200767E+00  1.75724121E+00
 -2.21315086E+00  4.45200767E+00  1.75724121E+00 -2.21315086E+00  4.45200767E+00
  1.75724121E+00 -2.21315086E+00  4.45200767E+00  1.75724121E+00 -2.21315086E+00
  4.45200767E+00  1.75724121E+00  2.95658235E+00  1.26446866E+00 -7.09010124E-01
  2.95658235E+00  1.26446866E+00 -7.09010124E-01  2.95658235E+00  1.26446866E+00
 -7.09010124E-01  2.95658235E+00  1.26446866E+00 -7.09010124E-01  2.95658235E+00
  1.26446866E+00 -7.09010124E-01  2.95658235E+00 -1.26446866E+00 -7.09010124E-01
  2.95658235E+00 -1.26446866E+00 -7.09010124E-01  2.95658235E+00 -1.26446866E+00
 -7.09010124E-01  2.95658235E+00 -1.26446866E+00 -7.09010124E-01  2.95658235E+00
 -1.26446866E+00 -7.09010124E-01  1.26446866E+00 -2.95658235E+00  7.09010124E-01
  1.26446866E+00 -2.95658235E+00  7.09010124E-01  1.26446866E+00 -2.95658235E+00
  7.09010124E-01  1.26446866E+00 -2.95658235E+00  7.09010124E-01  1.26446866E+00
 -2.95658235E+00  7.09010124E-01 -1.26446866E+00 -2.95658235E+00  7.09010124E-01
 -1.26446866E+00 -2.95658235E+00  7.09010124E-01 -1.26446866E+00 -2.95658235E+00
  7.09010124E-01 -1.26446866E+00 -2.95658235E+00  7.09010124E-01 -1.26446866E+00
 -2.95658235E+00  7.09010124E-01  4.45200767E+00  2.21315086E+00 -1.75724121E+00
  4.45200767E+00  2.21315086E+00 -1.75724121E+00  4.45200767E+00  2.21315086E+00
 -1.75724121E+00  4.45200767E+00  2.21315086E+00 -1.75724121E+00  4.45200767E+00
 -2.21315086E+00 -1.75724121E+00  4.45200767E+00 -2.21315086E+00 -1.75724121E+00
  4.45200767E+00 -2.21315086E+00 -1.75724121E+00  4.45200767E+00 -2.21315086E+00
 -1.75724121E+00
Num ILSW                                   I              100
ILSW                                       I   N=         100
           0           0           0           0           2           0
           0           0           0           0         402          -1
           5           0           0           0           0           0
           0           0           0           0           0           0
           1           1           0           0           0           0
           0           0      100000           0          -1           0
           0           0           0           0           0           0
           0           0           0           1           0           0
           0 -2000000000           1           0           0           0
           0           0           4          52           0           0
           0           0           5           0           0           0
           0           0           0          16           0           1
           0           0           0           0           0           0
           0           0           0           0           0           0
           0           0           0           0           0           0
           0           0           0           0           0           0
           0           0           0           0
Num RLSW                                   I               52
RLSW                                       R   N=          52
  8.00000000E-01  7.20000000E-01  1.00000000E+00  8.10000000E-01  2.00000000E-01
  0.00000000E+00  0.00000000E+00  1.00000000E+00  0.00000000E+00  0.00000000E+00
  0.00000000E+00  0.00000000E+00  1.00000000E+00  0.00000000E+00  0.00000000E+00
  0.00000000E+00  0.00000000E+00  1.00000000E+00  0.00000000E+00  0.00000000E+00
  0.00000000E+00  0.00000000E+00  1.00000000E+00  0.00000000E+00  0.00000000E+00
  0.00000000E+00  0.00000000E+00  1.00000000E+00  0.00000000E+00  0.00000000E+00
  0.00000000E+00  0.00000000E+00  1.00000000E+00  0.00000000E+00  0.00000000E+00
  0.00000000E+00  0.00000000E+00  0.00000000E+00  1.00000000E+00  1.00000000E+00
  0.00000000E+00  1.00000000E+00  0.00000000E+00  0.00000000E+00  0.00000000E+00
  0.00000000E+00  0.00000000E+00  0.00000000E+00  0.00000000E+00  0.00000000E+00
  0.00000000E+00  0.00000000E+00
MxBond                                     I                3
NBond                                      I   N=          16
           3           3           1           1           1           1
           3           3           1           1           3           3
           3           3           1           1
IBond                                      I   N=          48
           2           9          11           1           7          10
          13           0           0          14           0           0
           8           0           0           7           0           0
           2           6           8           5           7          14
           1           0           0           2           0           0
           1          12          15          11          13          16
           3          12          14           4           8          13
          11           0           0          12           0           0
RBond                                      R   N=          48
  2.00000000E+00  1.00000000E+00  1.00000000E+00  2.00000000E+00  1.00000000E+00
  1.00000000E+00  1.00000000E+00  0.00000000E+00  0.00000000E+00  1.00000000E+00
  0.00000000E+00  0.00000000E+00  1.00000000E+00  0.00000000E+00  0.00000000E+00
  1.00000000E+00  0.00000000E+00  0.00000000E+00  1.00000000E+00  1.00000000E+00
  2.00000000E+00  1.00000000E+00  2.00000000E+00  1.00000000E+00  1.00000000E+00
  0.00000000E+00  0.00000000E+00  1.00000000E+00  0.00000000E+00  0.00000000E+00
  1.00000000E+00  2.00000000E+00  1.00000000E+00  2.00000000E+00  1.00000000E+00
  1.00000000E+00  1.00000000E+00  1.00000000E+00  2.00000000E+00  1.00000000E+00
  1.00000000E+00  2.00000000E+00  1.00000000E+00  0.00000000E+00  0.00000000E+00
  1.00000000E+00  0.00000000E+00  0.00000000E+00
Virial Ratio                               R      2.004528673840509E+00
SCF Energy                                 R     -3.096652355701769E+02
Total Energy                               R     -3.096652355701769E+02
RMS Density                                R      3.111922126103006E-09
Job Status                                 I                1
Nuclear derivative order                   I                0
External E-field                           R   N=          35
  0.00000000E+00  0.00000000E+00  0.00000000E+00  0.00000000E+00  0.00000000E+00
  0.00000000E+00  0.00000000E+00  0.00000000E+00  0.00000000E+00  0.00000000E+00
  0.00000000E+00  0.00000000E+00  0.00000000E+00  0.00000000E+00  0.00000000E+00
  0.00000000E+00  0.00000000E+00  0.00000000E+00  0.00000000E+00  0.00000000E+00
  0.00000000E+00  0.00000000E+00  0.00000000E+00  0.00000000E+00  0.00000000E+00
  0.00000000E+00  0.00000000E+00  0.00000000E+00  0.00000000E+00  0.00000000E+00
  0.00000000E+00  0.00000000E+00  0.00000000E+00  0.00000000E+00  0.00000000E+00
IOpCl                                      I                0
IROHF                                      I                0
Alpha Orbital Energies                     R   N=         192
 -1.01766739E+01 -1.01765794E+01 -1.01765794E+01 -1.01763912E+01 -1.01759097E+01
 -1.01757000E+01 -1.01757000E+01 -1.01755664E+01 -8.37387414E-01 -7.83395891E-01
 -7.83395891E-01 -7.01080454E-01 -6.61858912E-01 -5.68844950E-01 -5.68844950E-01
 -5.10112962E-01 -4.58771267E-01 -4.58771267E-01 -4.56793406E-01 -4.53677435E-01
 -4.26988762E-01 -3.65572450E-01 -3.65572450E-01 -3.35869351E-01 -3.16834554E-01
 -2.75431683E-01 -2.75431683E-01 -2.15131487E-01 -5.51015214E-02  1.83682005E-02
  1.83682005E-02  4.39189501E-02  7.27921771E-02  7.27921771E-02  8.35971132E-02
  9.14559594E-02  1.10917830E-01  1.23458878E-01  1.23458878E-01  1.38008930E-01
  2.03787771E-01  2.90183753E-01  2.90183753E-01  3.26634426E-01  3.27462559E-01
  3.27462559E-01  3.55016884E-01  3.64615115E-01  3.67387856E-01  3.84173454E-01
  4.00197036E-01  4.11886443E-01  4.14089111E-01  4.14089111E-01  4.33906138E-01
  4.33906138E-01  4.68635628E-01  4.78209740E-01  4.78209740E-01  5.00906604E-01
  5.10628881E-01  5.17507567E-01  5.18716189E-01  5.18716189E-01  5.70940119E-01
  5.78508015E-01  6.05921885E-01  6.05921885E-01  6.08074543E-01  6.16304760E-01
  6.31228630E-01  6.31228630E-01  6.42758097E-01  6.65549527E-01  6.65549527E-01
  6.66085978E-01  7.27569210E-01  7.28816984E-01  7.84049298E-01  7.84049298E-01
  8.11597237E-01  8.46915586E-01  8.46915586E-01  8.54952222E-01  8.73450789E-01
  8.73450789E-01  1.04227116E+00  1.05213154E+00  1.09705091E+00  1.12588008E+00
  1.12588008E+00  1.16693487E+00  1.19594317E+00  1.25174502E+00  1.25174502E+00
  1.28933220E+00  1.34094063E+00  1.41311856E+00  1.43098520E+00  1.43098520E+00
  1.45962046E+00  1.47166735E+00  1.47994434E+00  1.47994434E+00  1.50483370E+00
  1.50679903E+00  1.50679903E+00  1.60599488E+00  1.62300299E+00  1.62300299E+00
  1.62413164E+00  1.68921425E+00  1.70936307E+00  1.74482088E+00  1.74982024E+00
  1.74982024E+00  1.79463082E+00  1.79962088E+00  1.79962088E+00  1.81306039E+00
  1.83827314E+00  1.86217661E+00  1.86217661E+00  1.87623749E+00  1.92299022E+00
  1.93165244E+00  1.93165244E+00  1.94646110E+00  2.03596907E+00  2.08990644E+00
  2.08990644E+00  2.12845269E+00  2.15017683E+00  2.19195634E+00  2.19195634E+00
  2.24116109E+00  2.25806046E+00  2.30352000E+00  2.30496366E+00  2.30496366E+00
  2.32159860E+00  2.39410268E+00  2.39410268E+00  2.49867910E+00  2.53233883E+00
  2.53233883E+00  2.54164009E+00  2.59191317E+00  2.59619184E+00  2.62051610E+00
  2.62051610E+00  2.62874193E+00  2.62951929E+00  2.66248722E+00  2.66301456E+00
  2.66301456E+00  2.76399404E+00  2.77281142E+00  2.77281142E+00  2.78829606E+00
  2.85407171E+00  2.91049628E+00  2.92331751E+00  2.92331751E+00  2.99388228E+00
  2.99388228E+00  3.00321241E+00  3.04157471E+00  3.18511712E+00  3.18511712E+00
  3.36001319E+00  3.44829249E+00  3.47440348E+00  3.47651474E+00  3.54263765E+00
  3.54263765E+00  3.83833364E+00  3.91830836E+00  3.91830836E+00  3.96512611E+00
  3.98813513E+00  4.17733151E+00  4.17733151E+00  4.57658992E+00  2.35020481E+01
  2.37513782E+01  2.37513782E+01  2.37780211E+01  2.42051782E+01  2.42336670E+01
  2.42336670E+01  2.43552241E+01
Alpha MO coefficients                      R   N=       36864
  1.98959769E-01  1.63974277E-01 -4.41620116E-05 -2.32094002E-04 -1.73608211E-04
  5.80740083E-03  6.79905252E-04  1.20449921E-03  8.13438255E-04 -1.71293104E-03
 -1.66263751E-05 -3.11861893E-04 -3.93777413E-05 -7.08977530E-05  4.12455883E-04
  4.32243430E-04 -2.56361065E-04  5.06839308E-04  1.98959769E-01  1.63974277E-01
  4.41620113E-05 -2.32094003E-04 -1.73608211E-04  5.80740083E-03 -6.79905251E-04
  1.20449921E-03  8.13438255E-04 -1.71293104E-03  1.66263743E-05 -3.11861893E-04
 -3.93777415E-05 -7.08977533E-05 -4.12455883E-04  4.32243429E-04 -2.56361065E-04
 -5.06839308E-04 -1.18516540E-04 -1.85261338E-03  1.15031150E-03  5.60588063E-04
 -9.51337021E-04  6.42528648E-04 -1.18516540E-04 -1.85261338E-03  1.15031150E-03
 -5.60588063E-04 -9.51337021E-04  6.42528648E-04 -1.18516540E-04 -1.85261338E-03
  1.15031150E-03 -9.51337021E-04 -5.60588063E-04 -6.42528648E-04 -1.18516540E-04
 -1.85261338E-03  1.15031150E-03 -9.51337021E-04  5.60588063E-04 -6.42528648E-04