Title Card Required                                                     
SP        UB3LYP                                                      6-311G(d,p)         
Number of atoms                            I               16
Info1-9                                    I   N=           9
          23          23           0           0           0         110
           1          18        -502
Full Title                                 C   N=           2
Title Card Required     
Route                                      C   N=           4
#p ub3lyp/6-311g(d,p) nosymm density=current    
Charge                                     I                0
Multiplicity                               I                3
Number of electrons                        I               56
Number of alpha electrons                  I               29
Number of beta electrons                   I               27
Number of basis functions                  I              192
Number of independent functions            I              192
Number of point charges in /Mol/           I                0
Number of translation vectors              I                0
Atomic numbers                             I   N=          16
           6           6           1           1           1           1
           6           6           1           1           6           6
           6           6           1           1
Nuclear charges                            R   N=          16
  6.00000000E+00  6.00000000E+00  1.00000000E+00  1.00000000E+00  1.00000000E+00
  1.00000000E+00  6.00000000E+00  6.00000000E+00  1.00000000E+00  1.00000000E+00
  6.00000000E+00  6.00000000E+00  6.00000000E+00  6.00000000E+00  1.00000000E+00
  1.00000000E+00
Current cartesian coordinates              R   N=          48
  0.00000000E+00  3.46310076E+00  0.00000000E+00  2.44878081E+00  2.44878081E+00
  0.00000000E+00 -3.90120730E+00 -3.90120730E+00  0.00000000E+00  0.00000000E+00
 -5.51713857E+00  0.00000000E+00  3.90120730E+00 -3.90120730E+00  0.00000000E+00
  5.51713857E+00  0.00000000E+00  0.00000000E+00  3.46310076E+00  0.00000000E+00
  0.00000000E+00  2.44878081E+00 -2.44878081E+00  0.00000000E+00  0.00000000E+00
  5.51713857E+00  0.00000000E+00  3.90120730E+00  3.90120730E+00  0.00000000E+00
 -2.44878081E+00  2.44878081E+00  0.00000000E+00 -3.46310076E+00  0.00000000E+00
  0.00000000E+00 -2.44878081E+00 -2.44878081E+00  0.00000000E+00  0.00000000E+00
 -3.46310076E+00  0.00000000E+00 -3.90120730E+00  3.90120730E+00  0.00000000E+00
 -5.51713857E+00  0.00000000E+00  0.00000000E+00
Number of symbols in /Mol/                 I                0
Force Field                                I                0
Atom Types                                 C   N=          16
                                                            
                                                            
                                                            
            
Int Atom Types                             I   N=          16
           0           0           0           0           0           0
           0           0           0           0           0           0
           0           0           0           0
MM charges                                 R   N=          16
  0.00000000E+00  0.00000000E+00  0.00000000E+00  0.00000000E+00  0.00000000E+00
  0.00000000E+00  0.00000000E+00  0.00000000E+00  0.00000000E+00  0.00000000E+00
  0.00000000E+00  0.00000000E+00  0.00000000E+00  0.00000000E+00  0.00000000E+00
  0.00000000E+00
Integer atomic weights                     I   N=          16
          12          12           1           1           1           1
          12          12           1           1          12          12
          12          12           1           1
Real atomic weights                        R   N=          16
  1.20000000E+01  1.20000000E+01  1.00782504E+00  1.00782504E+00  1.00782504E+00
  1.00782504E+00  1.20000000E+01  1.20000000E+01  1.00782504E+00  1.00782504E+00
  1.20000000E+01  1.20000000E+01  1.20000000E+01  1.20000000E+01  1.00782504E+00
  1.00782504E+00
Atom fragment info                         I   N=          16
           0           0           0           0           0           0
           0           0           0           0           0           0
           0           0           0           0
Atom residue num                           I   N=          16
           0           0           0           0           0           0
           0           0           0           0           0           0
           0           0           0           0
Nuclear spins                              I   N=          16
           0           0           1           1           1           1
           0           0           1           1           0           0
           0           0           1           1
Nuclear ZEff                               R   N=          16
 -3.60000000E+00 -3.60000000E+00 -1.00000000E+00 -1.00000000E+00 -1.00000000E+00
 -1.00000000E+00 -3.60000000E+00 -3.60000000E+00 -1.00000000E+00 -1.00000000E+00
 -3.60000000E+00 -3.60000000E+00 -3.60000000E+00 -3.60000000E+00 -1.00000000E+00
 -1.00000000E+00
Nuclear ZNuc                               R   N=          16
  6.00000000E+00  6.00000000E+00  1.00000000E+00  1.00000000E+00  1.00000000E+00
  1.00000000E+00  6.00000000E+00  6.00000000E+00  1.00000000E+00  1.00000000E+00
  6.00000000E+00  6.00000000E+00  6.00000000E+00  6.00000000E+00  1.00000000E+00
  1.00000000E+00
Nuclear QMom                               R   N=          16
  0.00000000E+00  0.00000000E+00  0.00000000E+00  0.00000000E+00  0.00000000E+00
  0.00000000E+00  0.00000000E+00  0.00000000E+00  0.00000000E+00  0.00000000E+00
  0.00000000E+00  0.00000000E+00  0.00000000E+00  0.00000000E+00  0.00000000E+00
  0.00000000E+00
Nuclear GFac                               R   N=          16
  0.00000000E+00  0.00000000E+00  2.79284600E+00  2.79284600E+00  2.79284600E+00
  2.79284600E+00  0.00000000E+00  0.00000000E+00  2.79284600E+00  2.79284600E+00
  0.00000000E+00  0.00000000E+00  0.00000000E+00  0.00000000E+00  2.79284600E+00
  2.79284600E+00
MicOpt                                     I   N=          16
          -1          -1          -1          -1          -1          -1
          -1          -1          -1          -1          -1          -1
          -1          -1          -1          -1
Number of residues                         I                0
Number of secondary structures             I                0
Number of contracted shells                I               72
Number of primitive shells                 I              144
Pure/Cartesian d shells                    I                0
Pure/Cartesian f shells                    I                0
Highest angular momentum                   I                2
Largest degree of contraction              I                6
Shell types                                I   N=          72
           0          -1          -1          -1          -2           0
          -1          -1          -1          -2           0           0
           0           1           0           0           0           1
           0           0           0           1           0           0
           0           1           0          -1          -1          -1
          -2           0          -1          -1          -1          -2
           0           0           0           1           0           0
           0           1           0          -1          -1          -1
          -2           0          -1          -1          -1          -2
           0          -1          -1          -1          -2           0
          -1          -1          -1          -2           0           0
           0           1           0           0           0           1
Number of primitives per shell             I   N=          72
           6           3           1           1           1           6
           3           1           1           1           3           1
           1           1           3           1           1           1
           3           1           1           1           3           1
           1           1           6           3           1           1
           1           6           3           1           1           1
           3           1           1           1           3           1
           1           1           6           3           1           1
           1           6           3           1           1           1
           6           3           1           1           1           6
           3           1           1           1           3           1
           1           1           3           1           1           1
Shell to atom map                          I   N=          72
           1           1           1           1           1           2
           2           2           2           2           3           3
           3           3           4           4           4           4
           5           5           5           5           6           6
           6           6           7           7           7           7
           7           8           8           8           8           8
           9           9           9           9          10          10
          10          10          11          11          11          11
          11          12          12          12          12          12
          13          13          13          13          13          14
          14          14          14          14          15          15
          15          15          16          16          16          16
Primitive exponents                        R   N=         144
  4.56324000E+03  6.82024000E+02  1.54973000E+02  4.44553000E+01  1.30290000E+01
  1.82773000E+00  2.09642000E+01  4.80331000E+00  1.45933000E+00  4.83456000E-01
  1.45585000E-01  6.26000000E-01  4.56324000E+03  6.82024000E+02  1.54973000E+02
  4.44553000E+01  1.30290000E+01  1.82773000E+00  2.09642000E+01  4.80331000E+00
  1.45933000E+00  4.83456000E-01  1.45585000E-01  6.26000000E-01  3.38650000E+01
  5.09479000E+00  1.15879000E+00  3.25840000E-01  1.02741000E-01  7.50000000E-01
  3.38650000E+01  5.09479000E+00  1.15879000E+00  3.25840000E-01  1.02741000E-01
  7.50000000E-01  3.38650000E+01  5.09479000E+00  1.15879000E+00  3.25840000E-01
  1.02741000E-01  7.50000000E-01  3.38650000E+01  5.09479000E+00  1.15879000E+00
  3.25840000E-01  1.02741000E-01  7.50000000E-01  4.56324000E+03  6.82024000E+02
  1.54973000E+02  4.44553000E+01  1.30290000E+01  1.82773000E+00  2.09642000E+01
  4.80331000E+00  1.45933000E+00  4.83456000E-01  1.45585000E-01  6.26000000E-01
  4.56324000E+03  6.82024000E+02  1.54973000E+02  4.44553000E+01  1.30290000E+01
  1.82773000E+00  2.09642000E+01  4.80331000E+00  1.45933000E+00  4.83456000E-01
  1.45585000E-01  6.26000000E-01  3.38650000E+01  5.09479000E+00  1.15879000E+00
  3.25840000E-01  1.02741000E-01  7.50000000E-01  3.38650000E+01  5.09479000E+00
  1.15879000E+00  3.25840000E-01  1.02741000E-01  7.50000000E-01  4.56324000E+03
  6.82024000E+02  1.54973000E+02  4.44553000E+01  1.30290000E+01  1.82773000E+00
  2.09642000E+01  4.80331000E+00  1.45933000E+00  4.83456000E-01  1.45585000E-01
  6.26000000E-01  4.56324000E+03  6.82024000E+02  1.54973000E+02  4.44553000E+01
  1.30290000E+01  1.82773000E+00  2.09642000E+01  4.80331000E+00  1.45933000E+00
  4.83456000E-01  1.45585000E-01  6.26000000E-01  4.56324000E+03  6.82024000E+02
  1.54973000E+02  4.44553000E+01  1.30290000E+01  1.82773000E+00  2.09642000E+01
  4.80331000E+00  1.45933000E+00  4.83456000E-01  1.45585000E-01  6.26000000E-01
  4.56324000E+03  6.82024000E+02  1.54973000E+02  4.44553000E+01  1.30290000E+01
  1.82773000E+00  2.09642000E+01  4.80331000E+00  1.45933000E+00  4.83456000E-01
  1.45585000E-01  6.26000000E-01  3.38650000E+01  5.09479000E+00  1.15879000E+00
  3.25840000E-01  1.02741000E-01  7.50000000E-01  3.38650000E+01  5.09479000E+00
  1.15879000E+00  3.25840000E-01  1.02741000E-01  7.50000000E-01
Contraction coefficients                   R   N=         144
  1.96665025E-03  1.52306019E-02  7.61269097E-02  2.60801033E-01  6.16462078E-01
  2.21006028E-01  1.14660081E-01  9.19999648E-01 -3.03068213E-03  1.00000000E+00
  1.00000000E+00  1.00000000E+00  1.96665025E-03  1.52306019E-02  7.61269097E-02
  2.60801033E-01  6.16462078E-01  2.21006028E-01  1.14660081E-01  9.19999648E-01
 -3.03068213E-03  1.00000000E+00  1.00000000E+00  1.00000000E+00  2.54938145E-02
  1.90373109E-01  8.52161486E-01  1.00000000E+00  1.00000000E+00  1.00000000E+00
  2.54938145E-02  1.90373109E-01  8.52161486E-01  1.00000000E+00  1.00000000E+00
  1.00000000E+00  2.54938145E-02  1.90373109E-01  8.52161486E-01  1.00000000E+00
  1.00000000E+00  1.00000000E+00  2.54938145E-02  1.90373109E-01  8.52161486E-01
  1.00000000E+00  1.00000000E+00  1.00000000E+00  1.96665025E-03  1.52306019E-02
  7.61269097E-02  2.60801033E-01  6.16462078E-01  2.21006028E-01  1.14660081E-01
  9.19999648E-01 -3.03068213E-03  1.00000000E+00  1.00000000E+00  1.00000000E+00
  1.96665025E-03  1.52306019E-02  7.61269097E-02  2.60801033E-01  6.16462078E-01
  2.21006028E-01  1.14660081E-01  9.19999648E-01 -3.03068213E-03  1.00000000E+00
  1.00000000E+00  1.00000000E+00  2.54938145E-02  1.90373109E-01  8.52161486E-01
  1.00000000E+00  1.00000000E+00  1.00000000E+00  2.54938145E-02  1.90373109E-01
  8.52161486E-01  1.00000000E+00  1.00000000E+00  1.00000000E+00  1.96665025E-03
  1.52306019E-02  7.61269097E-02  2.60801033E-01  6.16462078E-01  2.21006028E-01
  1.14660081E-01  9.19999648E-01 -3.03068213E-03  1.00000000E+00  1.00000000E+00
  1.00000000E+00  1.96665025E-03  1.52306019E-02  7.61269097E-02  2.60801033E-01
  6.16462078E-01  2.21006028E-01  1.14660081E-01  9.19999648E-01 -3.03068213E-03
  1.00000000E+00  1.00000000E+00  1.00000000E+00  1.96665025E-03  1.52306019E-02
  7.61269097E-02  2.60801033E-01  6.16462078E-01  2.21006028E-01  1.14660081E-01
  9.19999648E-01 -3.03068213E-03  1.00000000E+00  1.00000000E+00  1.00000000E+00
  1.96665025E-03  1.52306019E-02  7.61269097E-02  2.60801033E-01  6.16462078E-01
  2.21006028E-01  1.14660081E-01  9.19999648E-01 -3.03068213E-03  1.00000000E+00
  1.00000000E+00  1.00000000E+00  2.54938145E-02  1.90373109E-01  8.52161486E-01
  1.00000000E+00  1.00000000E+00  1.00000000E+00  2.54938145E-02  1.90373109E-01
  8.52161486E-01  1.00000000E+00  1.00000000E+00  1.00000000E+00
P(S=P) Contraction coefficients            R   N=         144
  0.00000000E+00  0.00000000E+00  0.00000000E+00  0.00000000E+00  0.00000000E+00
  0.00000000E+00  4.02486927E-02  2.37593957E-01  8.15853851E-01  1.00000000E+00
  1.00000000E+00  0.00000000E+00  0.00000000E+00  0.00000000E+00  0.00000000E+00
  0.00000000E+00  0.00000000E+00  0.00000000E+00  4.02486927E-02  2.37593957E-01
  8.15853851E-01  1.00000000E+00  1.00000000E+00  0.00000000E+00  0.00000000E+00
  0.00000000E+00  0.00000000E+00  0.00000000E+00  0.00000000E+00  0.00000000E+00
  0.00000000E+00  0.00000000E+00  0.00000000E+00  0.00000000E+00  0.00000000E+00
  0.00000000E+00  0.00000000E+00  0.00000000E+00  0.00000000E+00  0.00000000E+00
  0.00000000E+00  0.00000000E+00  0.00000000E+00  0.00000000E+00  0.00000000E+00
  0.00000000E+00  0.00000000E+00  0.00000000E+00  0.00000000E+00  0.00000000E+00
  0.00000000E+00  0.00000000E+00  0.00000000E+00  0.00000000E+00  4.02486927E-02
  2.37593957E-01  8.15853851E-01  1.00000000E+00  1.00000000E+00  0.00000000E+00
  0.00000000E+00  0.00000000E+00  0.00000000E+00  0.00000000E+00  0.00000000E+00
  0.00000000E+00  4.02486927E-02  2.37593957E-01  8.15853851E-01  1.00000000E+00
  1.00000000E+00  0.00000000E+00  0.00000000E+00  0.00000000E+00  0.00000000E+00
  0.00000000E+00  0.00000000E+00  0.00000000E+00  0.00000000E+00  0.00000000E+00
  0.00000000E+00  0.00000000E+00  0.00000000E+00  0.00000000E+00  0.00000000E+00
  0.00000000E+00  0.00000000E+00  0.00000000E+00  0.00000000E+00  0.00000000E+00
  4.02486927E-02  2.37593957E-01  8.15853851E-01  1.00000000E+00  1.00000000E+00
  0.00000000E+00  0.00000000E+00  0.00000000E+00  0.00000000E+00  0.00000000E+00
  0.00000000E+00  0.00000000E+00  4.02486927E-02  2.37593957E-01  8.15853851E-01
  1.00000000E+00  1.00000000E+00  0.00000000E+00  0.00000000E+00  0.00000000E+00
  0.00000000E+00  0.00000000E+00  0.00000000E+00  0.00000000E+00  4.02486927E-02
  2.37593957E-01  8.15853851E-01  1.00000000E+00  1.00000000E+00  0.00000000E+00
  0.00000000E+00  0.00000000E+00  0.00000000E+00  0.00000000E+00  0.00000000E+00
  0.00000000E+00  4.02486927E-02  2.37593957E-01  8.15853851E-01  1.00000000E+00
  1.00000000E+00  0.00000000E+00  0.00000000E+00  0.00000000E+00  0.00000000E+00
  0.00000000E+00  0.00000000E+00  0.00000000E+00  0.00000000E+00  0.00000000E+00
  0.00000000E+00  0.00000000E+00  0.00000000E+00  0.00000000E+00
Coordinates of each shell                  R   N=         216
  0.00000000E+00  3.46310076E+00  0.00000000E+00  0.00000000E+00  3.46310076E+00
  0.00000000E+00  0.00000000E+00  3.46310076E+00  0.00000000E+00  0.00000000E+00
  3.46310076E+00  0.00000000E+00  0.00000000E+00  3.46310076E+00  0.00000000E+00
  2.44878081E+00  2.44878081E+00  0.00000000E+00  2.44878081E+00  2.44878081E+00
  0.00000000E+00  2.44878081E+00  2.44878081E+00  0.00000000E+00  2.44878081E+00
  2.44878081E+00  0.00000000E+00  2.44878081E+00  2.44878081E+00  0.00000000E+00
 -3.90120730E+00 -3.90120730E+00  0.00000000E+00 -3.90120730E+00 -3.90120730E+00
  0.00000000E+00 -3.90120730E+00 -3.90120730E+00  0.00000000E+00 -3.90120730E+00
 -3.90120730E+00  0.00000000E+00  0.00000000E+00 -5.51713857E+00  0.00000000E+00
  0.00000000E+00 -5.51713857E+00  0.00000000E+00  0.00000000E+00 -5.51713857E+00
  0.00000000E+00  0.00000000E+00 -5.51713857E+00  0.00000000E+00  3.90120730E+00
 -3.90120730E+00  0.00000000E+00  3.90120730E+00 -3.90120730E+00  0.00000000E+00
  3.90120730E+00 -3.90120730E+00  0.00000000E+00  3.90120730E+00 -3.90120730E+00
  0.00000000E+00  5.51713857E+00  0.00000000E+00  0.00000000E+00  5.51713857E+00
  0.00000000E+00  0.00000000E+00  5.51713857E+00  0.00000000E+00  0.00000000E+00
  5.51713857E+00  0.00000000E+00  0.00000000E+00  3.46310076E+00  0.00000000E+00
  0.00000000E+00  3.46310076E+00  0.00000000E+00  0.00000000E+00  3.46310076E+00
  0.00000000E+00  0.00000000E+00  3.46310076E+00  0.00000000E+00  0.00000000E+00
  3.46310076E+00  0.00000000E+00  0.00000000E+00  2.44878081E+00 -2.44878081E+00
  0.00000000E+00  2.44878081E+00 -2.44878081E+00  0.00000000E+00  2.44878081E+00
 -2.44878081E+00  0.00000000E+00  2.44878081E+00 -2.44878081E+00  0.00000000E+00
  2.44878081E+00 -2.44878081E+00  0.00000000E+00  0.00000000E+00  5.51713857E+00
  0.00000000E+00  0.00000000E+00  5.51713857E+00  0.00000000E+00  0.00000000E+00
  5.51713857E+00  0.00000000E+00  0.00000000E+00  5.51713857E+00  0.00000000E+00
  3.90120730E+00  3.90120730E+00  0.00000000E+00  3.90120730E+00  3.90120730E+00
  0.00000000E+00  3.90120730E+00  3.90120730E+00  0.00000000E+00  3.90120730E+00
  3.90120730E+00  0.00000000E+00 -2.44878081E+00  2.44878081E+00  0.00000000E+00
 -2.44878081E+00  2.44878081E+00  0.00000000E+00 -2.44878081E+00  2.44878081E+00
  0.00000000E+00 -2.44878081E+00  2.44878081E+00  0.00000000E+00 -2.44878081E+00
  2.44878081E+00  0.00000000E+00 -3.46310076E+00  0.00000000E+00  0.00000000E+00
 -3.46310076E+00  0.00000000E+00  0.00000000E+00 -3.46310076E+00  0.00000000E+00
  0.00000000E+00 -3.46310076E+00  0.00000000E+00  0.00000000E+00 -3.46310076E+00
  0.00000000E+00  0.00000000E+00 -2.44878081E+00 -2.44878081E+00  0.00000000E+00
 -2.44878081E+00 -2.44878081E+00  0.00000000E+00 -2.44878081E+00 -2.44878081E+00
  0.00000000E+00 -2.44878081E+00 -2.44878081E+00  0.00000000E+00 -2.44878081E+00
 -2.44878081E+00  0.00000000E+00  0.00000000E+00 -3.46310076E+00  0.00000000E+00
  0.00000000E+00 -3.46310076E+00  0.00000000E+00  0.00000000E+00 -3.46310076E+00
  0.00000000E+00  0.00000000E+00 -3.46310076E+00  0.00000000E+00  0.00000000E+00
 -3.46310076E+00  0.00000000E+00 -3.90120730E+00  3.90120730E+00  0.00000000E+00
 -3.90120730E+00  3.90120730E+00  0.00000000E+00 -3.90120730E+00  3.90120730E+00
  0.00000000E+00 -3.90120730E+00  3.90120730E+00  0.00000000E+00 -5.51713857E+00
  0.00000000E+00  0.00000000E+00 -5.51713857E+00  0.00000000E+00  0.00000000E+00
 -5.51713857E+00  0.00000000E+00  0.00000000E+00 -5.51713857E+00  0.00000000E+00
  0.00000000E+00
Num ILSW                                   I              100
ILSW                                       I   N=         100
           1           0           0           0           2           0
           0           0           0           0         402          -1
           5           0           0           0           0           0
           0           0           0           0           0           0
           1           1           0           0           0           0
           0           0      100000           0          -1           0
           0           0           0           0           0           0
           0           0           0           1           0           0
           0 -2000000000           1           0           0           0
           0           0           4          52           0           0
           0           0           5           0           0           0
           0           0           0          16           0           1
           0           0           0           0           0           0
           0           0           0           0           0           0
           0           0           0           0           0           0
           0           0           0           0           0           0
           0           0           0           0
Num RLSW                                   I               52
RLSW                                       R   N=          52
  8.00000000E-01  7.20000000E-01  1.00000000E+00  8.10000000E-01  2.00000000E-01
  0.00000000E+00  0.00000000E+00  1.00000000E+00  0.00000000E+00  0.00000000E+00
  0.00000000E+00  0.00000000E+00  1.00000000E+00  0.00000000E+00  0.00000000E+00
  0.00000000E+00  0.00000000E+00  1.00000000E+00  0.00000000E+00  0.00000000E+00
  0.00000000E+00  0.00000000E+00  1.00000000E+00  0.00000000E+00  0.00000000E+00
  0.00000000E+00  0.00000000E+00  1.00000000E+00  0.00000000E+00  0.00000000E+00
  0.00000000E+00  0.00000000E+00  1.00000000E+00  0.00000000E+00  0.00000000E+00
  0.00000000E+00  0.00000000E+00  0.00000000E+00  1.00000000E+00  1.00000000E+00
  0.00000000E+00  1.00000000E+00  0.00000000E+00  0.00000000E+00  0.00000000E+00
  0.00000000E+00  0.00000000E+00  0.00000000E+00  0.00000000E+00  0.00000000E+00
  0.00000000E+00  0.00000000E+00
MxBond                                     I                3
NBond                                      I   N=          16
           3           3           1           1           1           1
           3           3           1           1           3           3
           3           3           1           1
IBond                                      I   N=          48
           2           9          11           1           7          10
          13           0           0          14           0           0
           8           0           0           7           0           0
           2           6           8           5           7          14
           1           0           0           2           0           0
           1          12          15          11          13          16
           3          12          14           4           8          13
          11           0           0          12           0           0
RBond                                      R   N=          48
  1.50000000E+00  1.00000000E+00  1.50000000E+00  1.50000000E+00  1.50000000E+00
  1.00000000E+00  1.00000000E+00  0.00000000E+00  0.00000000E+00  1.00000000E+00
  0.00000000E+00  0.00000000E+00  1.00000000E+00  0.00000000E+00  0.00000000E+00
  1.00000000E+00  0.00000000E+00  0.00000000E+00  1.50000000E+00  1.00000000E+00
  1.50000000E+00  1.00000000E+00  1.50000000E+00  1.50000000E+00  1.00000000E+00
  0.00000000E+00  0.00000000E+00  1.00000000E+00  0.00000000E+00  0.00000000E+00
  1.50000000E+00  1.50000000E+00  1.00000000E+00  1.50000000E+00  1.50000000E+00
  1.00000000E+00  1.00000000E+00  1.50000000E+00  1.50000000E+00  1.00000000E+00
  1.50000000E+00  1.50000000E+00  1.00000000E+00  0.00000000E+00  0.00000000E+00
  1.00000000E+00  0.00000000E+00  0.00000000E+00
Virial Ratio                               R      2.004478252436152E+00
SCF Energy                                 R     -3.096404921810642E+02
Total Energy                               R     -3.096404921810642E+02
S**2                                       R      2.002775571841241E+00
S**2 after annihilation                    R      2.000005129550499E+00
RMS Density                                R      2.980118425751700E-09
Job Status                                 I                1
Nuclear derivative order                   I                0
External E-field                           R   N=          35
  0.00000000E+00  0.00000000E+00  0.00000000E+00  0.00000000E+00  0.00000000E+00
  0.00000000E+00  0.00000000E+00  0.00000000E+00  0.00000000E+00  0.00000000E+00
  0.00000000E+00  0.00000000E+00  0.00000000E+00  0.00000000E+00  0.00000000E+00
  0.00000000E+00  0.00000000E+00  0.00000000E+00  0.00000000E+00  0.00000000E+00
  0.00000000E+00  0.00000000E+00  0.00000000E+00  0.00000000E+00  0.00000000E+00
  0.00000000E+00  0.00000000E+00  0.00000000E+00  0.00000000E+00  0.00000000E+00
  0.00000000E+00  0.00000000E+00  0.00000000E+00  0.00000000E+00  0.00000000E+00
IOpCl                                      I                1
IROHF                                      I                0
Alpha Orbital Energies                     R   N=         192
 -1.01845035E+01 -1.01843867E+01 -1.01843867E+01 -1.01840444E+01 -1.01840444E+01
 -1.01836766E+01 -1.01836766E+01 -1.01835358E+01 -8.40610496E-01 -7.95580668E-01
 -7.95580668E-01 -7.01178463E-01 -7.01178189E-01 -5.84740472E-01 -5.84740472E-01
 -5.18183326E-01 -4.73768903E-01 -4.63097020E-01 -4.63097020E-01 -4.37442336E-01
 -3.79594410E-01 -3.66178665E-01 -3.66178133E-01 -3.51292257E-01 -3.51292257E-01
 -3.24000268E-01 -3.24000268E-01 -1.85550185E-01 -1.85549718E-01  2.41230808E-02
  2.48285446E-02  2.48285446E-02  5.39857891E-02  5.39857891E-02  1.00680762E-01
  1.00680843E-01  1.34190525E-01  1.34190525E-01  1.44005148E-01  1.67841069E-01
  2.60369999E-01  2.60371437E-01  2.84630217E-01  2.84630217E-01  2.91283834E-01
  3.37000301E-01  3.37000301E-01  3.52486101E-01  3.57500155E-01  3.64526373E-01
  4.06218045E-01  4.24491439E-01  4.24491439E-01  4.27752713E-01  4.27752713E-01
  4.33552893E-01  4.33553937E-01  4.38933715E-01  4.38933715E-01  4.92804131E-01
  4.92808778E-01  5.62815264E-01  5.62815264E-01  5.86768760E-01  5.86769265E-01
  5.96501353E-01  5.96501353E-01  6.12259707E-01  6.12259707E-01  6.25242673E-01
  6.32363023E-01  6.35277864E-01  6.76789137E-01  7.26339152E-01  7.26339678E-01
  7.55596128E-01  7.55596128E-01  7.56457840E-01  7.61085583E-01  7.61085583E-01
  8.46196570E-01  8.46196570E-01  9.43803981E-01  9.47279790E-01  9.83113971E-01
  1.00246095E+00  1.00248052E+00  1.00669807E+00  1.00669807E+00  1.08553977E+00
  1.08553977E+00  1.09947958E+00  1.09947958E+00  1.13158443E+00  1.13158455E+00
  1.30857957E+00  1.31371075E+00  1.38022796E+00  1.39779280E+00  1.39779280E+00
  1.45933439E+00  1.47170937E+00  1.47170937E+00  1.49312143E+00  1.49312143E+00
  1.52735044E+00  1.52793198E+00  1.52793215E+00  1.64948896E+00  1.64948896E+00
  1.66734366E+00  1.66734513E+00  1.73208358E+00  1.73922974E+00  1.73923040E+00
  1.75148487E+00  1.75148487E+00  1.80151734E+00  1.80151734E+00  1.85483280E+00
  1.85483415E+00  1.86386037E+00  1.86647490E+00  1.86647490E+00  1.91941323E+00
  1.94122758E+00  1.98893353E+00  1.98893353E+00  2.02266617E+00  2.02266871E+00
  2.09044139E+00  2.09044139E+00  2.09916957E+00  2.09916957E+00  2.18260774E+00
  2.20295425E+00  2.20295425E+00  2.24106041E+00  2.26550894E+00  2.26550944E+00
  2.46376210E+00  2.46376210E+00  2.46819106E+00  2.46819183E+00  2.49902454E+00
  2.50835652E+00  2.51194701E+00  2.55946641E+00  2.55946641E+00  2.67484462E+00
  2.67484799E+00  2.67541511E+00  2.67541511E+00  2.71055805E+00  2.71055805E+00
  2.71971404E+00  2.75748948E+00  2.75748948E+00  2.78609205E+00  2.78609314E+00
  2.80556340E+00  2.86159100E+00  2.86159100E+00  2.96182515E+00  2.97054195E+00
  2.97054195E+00  3.02238169E+00  3.05542736E+00  3.28513650E+00  3.28513650E+00
  3.32815480E+00  3.36928742E+00  3.40922910E+00  3.40923252E+00  3.46595468E+00
  3.46595468E+00  3.89695912E+00  3.89696259E+00  3.93477522E+00  3.93477522E+00
  4.01801654E+00  4.26743319E+00  4.26743319E+00  4.87437287E+00  2.34835194E+01
  2.37790347E+01  2.37790347E+01  2.39809283E+01  2.39809290E+01  2.41316455E+01
  2.41316455E+01  2.43106254E+01
Beta Orbital Energies                      R   N=         192
 -1.01808088E+01 -1.01806882E+01 -1.01806882E+01 -1.01803421E+01 -1.01803420E+01
 -1.01799857E+01 -1.01799857E+01 -1.01798488E+01 -8.26846923E-01 -7.81573468E-01
 -7.81573468E-01 -6.88232289E-01 -6.88232060E-01 -5.74995357E-01 -5.74995357E-01
 -5.14813532E-01 -4.67042156E-01 -4.59563162E-01 -4.59563162E-01 -4.30911133E-01
 -3.62447078E-01 -3.62446564E-01 -3.47206796E-01 -3.47206796E-01 -3.43115349E-01
 -2.81594031E-01 -2.81594031E-01 -1.11635797E-01 -1.11635092E-01  2.56051595E-02
  5.51732890E-02  5.51732890E-02  6.61100114E-02  6.61100114E-02  1.01810506E-01
  1.01810634E-01  1.37138852E-01  1.37138852E-01  1.70754257E-01  1.81033372E-01
  2.66471100E-01  2.66472518E-01  2.91834015E-01  2.91834015E-01  2.93093383E-01
  3.40571219E-01  3.40571219E-01  3.58589463E-01  3.66963391E-01  3.72648405E-01