Title Card Required                                                     
SP        RB3LYP                                                      6-311G(d,p)         
Number of atoms                            I               12
Info1-9                                    I   N=           9
          19          19           0           0           0         110
           1          18        -502
Full Title                                 C   N=           2
Title Card Required     
Route                                      C   N=           4
#p b3lyp/6-311g(d,p) nosymm density=current     
Charge                                     I                0
Multiplicity                               I                1
Number of electrons                        I               42
Number of alpha electrons                  I               21
Number of beta electrons                   I               21
Number of basis functions                  I              144
Number of independent functions            I              144
Number of point charges in /Mol/           I                0
Number of translation vectors              I                0
Atomic numbers                             I   N=          12
           6           6           6           6           6           6
           1           1           1           1           1           1
Nuclear charges                            R   N=          12
  6.00000000E+00  6.00000000E+00  6.00000000E+00  6.00000000E+00  6.00000000E+00
  6.00000000E+00  1.00000000E+00  1.00000000E+00  1.00000000E+00  1.00000000E+00
  1.00000000E+00  1.00000000E+00
Current cartesian coordinates              R   N=          36
  0.00000000E+00  2.63333713E+00  0.00000000E+00  2.28053660E+00  1.31666857E+00
  0.00000000E+00  2.28053660E+00 -1.31666857E+00  0.00000000E+00  0.00000000E+00
 -2.63333713E+00  0.00000000E+00 -2.28053660E+00 -1.31666857E+00  0.00000000E+00
 -2.28053660E+00  1.31666857E+00  0.00000000E+00  0.00000000E+00  4.68232938E+00
  0.00000000E+00  4.05501589E+00  2.34116469E+00  0.00000000E+00  4.05501589E+00
 -2.34116469E+00  0.00000000E+00  0.00000000E+00 -4.68232938E+00  0.00000000E+00
 -4.05501589E+00 -2.34116469E+00  0.00000000E+00 -4.05501589E+00  2.34116469E+00
  0.00000000E+00
Number of symbols in /Mol/                 I                0
Force Field                                I                0
Atom Types                                 C   N=          12
                                                            
                                                            
                        
Int Atom Types                             I   N=          12
           0           0           0           0           0           0
           0           0           0           0           0           0
MM charges                                 R   N=          12
  0.00000000E+00  0.00000000E+00  0.00000000E+00  0.00000000E+00  0.00000000E+00
  0.00000000E+00  0.00000000E+00  0.00000000E+00  0.00000000E+00  0.00000000E+00
  0.00000000E+00  0.00000000E+00
Integer atomic weights                     I   N=          12
          12          12          12          12          12          12
           1           1           1           1           1           1
Real atomic weights                        R   N=          12
  1.20000000E+01  1.20000000E+01  1.20000000E+01  1.20000000E+01  1.20000000E+01
  1.20000000E+01  1.00782504E+00  1.00782504E+00  1.00782504E+00  1.00782504E+00
  1.00782504E+00  1.00782504E+00
Atom fragment info                         I   N=          12
           0           0           0           0           0           0
           0           0           0           0           0           0
Atom residue num                           I   N=          12
           0           0           0           0           0           0
           0           0           0           0           0           0
Nuclear spins                              I   N=          12
           0           0           0           0           0           0
           1           1           1           1           1           1
Nuclear ZEff                               R   N=          12
 -3.60000000E+00 -3.60000000E+00 -3.60000000E+00 -3.60000000E+00 -3.60000000E+00
 -3.60000000E+00 -1.00000000E+00 -1.00000000E+00 -1.00000000E+00 -1.00000000E+00
 -1.00000000E+00 -1.00000000E+00
Nuclear ZNuc                               R   N=          12
  6.00000000E+00  6.00000000E+00  6.00000000E+00  6.00000000E+00  6.00000000E+00
  6.00000000E+00  1.00000000E+00  1.00000000E+00  1.00000000E+00  1.00000000E+00
  1.00000000E+00  1.00000000E+00
Nuclear QMom                               R   N=          12
  0.00000000E+00  0.00000000E+00  0.00000000E+00  0.00000000E+00  0.00000000E+00
  0.00000000E+00  0.00000000E+00  0.00000000E+00  0.00000000E+00  0.00000000E+00
  0.00000000E+00  0.00000000E+00
Nuclear GFac                               R   N=          12
  0.00000000E+00  0.00000000E+00  0.00000000E+00  0.00000000E+00  0.00000000E+00
  0.00000000E+00  2.79284600E+00  2.79284600E+00  2.79284600E+00  2.79284600E+00
  2.79284600E+00  2.79284600E+00
MicOpt                                     I   N=          12
          -1          -1          -1          -1          -1          -1
          -1          -1          -1          -1          -1          -1
Number of residues                         I                0
Number of secondary structures             I                0
Number of contracted shells                I               54
Number of primitive shells                 I              108
Pure/Cartesian d shells                    I                0
Pure/Cartesian f shells                    I                0
Highest angular momentum                   I                2
Largest degree of contraction              I                6
Shell types                                I   N=          54
           0          -1          -1          -1          -2           0
          -1          -1          -1          -2           0          -1
          -1          -1          -2           0          -1          -1
          -1          -2           0          -1          -1          -1
          -2           0          -1          -1          -1          -2
           0           0           0           1           0           0
           0           1           0           0           0           1
           0           0           0           1           0           0
           0           1           0           0           0           1
Number of primitives per shell             I   N=          54
           6           3           1           1           1           6
           3           1           1           1           6           3
           1           1           1           6           3           1
           1           1           6           3           1           1
           1           6           3           1           1           1
           3           1           1           1           3           1
           1           1           3           1           1           1
           3           1           1           1           3           1
           1           1           3           1           1           1
Shell to atom map                          I   N=          54
           1           1           1           1           1           2
           2           2           2           2           3           3
           3           3           3           4           4           4
           4           4           5           5           5           5
           5           6           6           6           6           6
           7           7           7           7           8           8
           8           8           9           9           9           9
          10          10          10          10          11          11
          11          11          12          12          12          12
Primitive exponents                        R   N=         108
  4.56324000E+03  6.82024000E+02  1.54973000E+02  4.44553000E+01  1.30290000E+01
  1.82773000E+00  2.09642000E+01  4.80331000E+00  1.45933000E+00  4.83456000E-01
  1.45585000E-01  6.26000000E-01  4.56324000E+03  6.82024000E+02  1.54973000E+02
  4.44553000E+01  1.30290000E+01  1.82773000E+00  2.09642000E+01  4.80331000E+00
  1.45933000E+00  4.83456000E-01  1.45585000E-01  6.26000000E-01  4.56324000E+03
  6.82024000E+02  1.54973000E+02  4.44553000E+01  1.30290000E+01  1.82773000E+00
  2.09642000E+01  4.80331000E+00  1.45933000E+00  4.83456000E-01  1.45585000E-01
  6.26000000E-01  4.56324000E+03  6.82024000E+02  1.54973000E+02  4.44553000E+01
  1.30290000E+01  1.82773000E+00  2.09642000E+01  4.80331000E+00  1.45933000E+00
  4.83456000E-01  1.45585000E-01  6.26000000E-01  4.56324000E+03  6.82024000E+02
  1.54973000E+02  4.44553000E+01  1.30290000E+01  1.82773000E+00  2.09642000E+01
  4.80331000E+00  1.45933000E+00  4.83456000E-01  1.45585000E-01  6.26000000E-01
  4.56324000E+03  6.82024000E+02  1.54973000E+02  4.44553000E+01  1.30290000E+01
  1.82773000E+00  2.09642000E+01  4.80331000E+00  1.45933000E+00  4.83456000E-01
  1.45585000E-01  6.26000000E-01  3.38650000E+01  5.09479000E+00  1.15879000E+00
  3.25840000E-01  1.02741000E-01  7.50000000E-01  3.38650000E+01  5.09479000E+00
  1.15879000E+00  3.25840000E-01  1.02741000E-01  7.50000000E-01  3.38650000E+01
  5.09479000E+00  1.15879000E+00  3.25840000E-01  1.02741000E-01  7.50000000E-01
  3.38650000E+01  5.09479000E+00  1.15879000E+00  3.25840000E-01  1.02741000E-01
  7.50000000E-01  3.38650000E+01  5.09479000E+00  1.15879000E+00  3.25840000E-01
  1.02741000E-01  7.50000000E-01  3.38650000E+01  5.09479000E+00  1.15879000E+00
  3.25840000E-01  1.02741000E-01  7.50000000E-01
Contraction coefficients                   R   N=         108
  1.96665025E-03  1.52306019E-02  7.61269097E-02  2.60801033E-01  6.16462078E-01
  2.21006028E-01  1.14660081E-01  9.19999648E-01 -3.03068213E-03  1.00000000E+00
  1.00000000E+00  1.00000000E+00  1.96665025E-03  1.52306019E-02  7.61269097E-02
  2.60801033E-01  6.16462078E-01  2.21006028E-01  1.14660081E-01  9.19999648E-01
 -3.03068213E-03  1.00000000E+00  1.00000000E+00  1.00000000E+00  1.96665025E-03
  1.52306019E-02  7.61269097E-02  2.60801033E-01  6.16462078E-01  2.21006028E-01
  1.14660081E-01  9.19999648E-01 -3.03068213E-03  1.00000000E+00  1.00000000E+00
  1.00000000E+00  1.96665025E-03  1.52306019E-02  7.61269097E-02  2.60801033E-01
  6.16462078E-01  2.21006028E-01  1.14660081E-01  9.19999648E-01 -3.03068213E-03
  1.00000000E+00  1.00000000E+00  1.00000000E+00  1.96665025E-03  1.52306019E-02
  7.61269097E-02  2.60801033E-01  6.16462078E-01  2.21006028E-01  1.14660081E-01
  9.19999648E-01 -3.03068213E-03  1.00000000E+00  1.00000000E+00  1.00000000E+00
  1.96665025E-03  1.52306019E-02  7.61269097E-02  2.60801033E-01  6.16462078E-01
  2.21006028E-01  1.14660081E-01  9.19999648E-01 -3.03068213E-03  1.00000000E+00
  1.00000000E+00  1.00000000E+00  2.54938145E-02  1.90373109E-01  8.52161486E-01
  1.00000000E+00  1.00000000E+00  1.00000000E+00  2.54938145E-02  1.90373109E-01
  8.52161486E-01  1.00000000E+00  1.00000000E+00  1.00000000E+00  2.54938145E-02
  1.90373109E-01  8.52161486E-01  1.00000000E+00  1.00000000E+00  1.00000000E+00
  2.54938145E-02  1.90373109E-01  8.52161486E-01  1.00000000E+00  1.00000000E+00
  1.00000000E+00  2.54938145E-02  1.90373109E-01  8.52161486E-01  1.00000000E+00
  1.00000000E+00  1.00000000E+00  2.54938145E-02  1.90373109E-01  8.52161486E-01
  1.00000000E+00  1.00000000E+00  1.00000000E+00
P(S=P) Contraction coefficients            R   N=         108
  0.00000000E+00  0.00000000E+00  0.00000000E+00  0.00000000E+00  0.00000000E+00
  0.00000000E+00  4.02486927E-02  2.37593957E-01  8.15853851E-01  1.00000000E+00
  1.00000000E+00  0.00000000E+00  0.00000000E+00  0.00000000E+00  0.00000000E+00
  0.00000000E+00  0.00000000E+00  0.00000000E+00  4.02486927E-02  2.37593957E-01
  8.15853851E-01  1.00000000E+00  1.00000000E+00  0.00000000E+00  0.00000000E+00
  0.00000000E+00  0.00000000E+00  0.00000000E+00  0.00000000E+00  0.00000000E+00
  4.02486927E-02  2.37593957E-01  8.15853851E-01  1.00000000E+00  1.00000000E+00
  0.00000000E+00  0.00000000E+00  0.00000000E+00  0.00000000E+00  0.00000000E+00
  0.00000000E+00  0.00000000E+00  4.02486927E-02  2.37593957E-01  8.15853851E-01
  1.00000000E+00  1.00000000E+00  0.00000000E+00  0.00000000E+00  0.00000000E+00
  0.00000000E+00  0.00000000E+00  0.00000000E+00  0.00000000E+00  4.02486927E-02
  2.37593957E-01  8.15853851E-01  1.00000000E+00  1.00000000E+00  0.00000000E+00
  0.00000000E+00  0.00000000E+00  0.00000000E+00  0.00000000E+00  0.00000000E+00
  0.00000000E+00  4.02486927E-02  2.37593957E-01  8.15853851E-01  1.00000000E+00
  1.00000000E+00  0.00000000E+00  0.00000000E+00  0.00000000E+00  0.00000000E+00
  0.00000000E+00  0.00000000E+00  0.00000000E+00  0.00000000E+00  0.00000000E+00
  0.00000000E+00  0.00000000E+00  0.00000000E+00  0.00000000E+00  0.00000000E+00
  0.00000000E+00  0.00000000E+00  0.00000000E+00  0.00000000E+00  0.00000000E+00
  0.00000000E+00  0.00000000E+00  0.00000000E+00  0.00000000E+00  0.00000000E+00
  0.00000000E+00  0.00000000E+00  0.00000000E+00  0.00000000E+00  0.00000000E+00
  0.00000000E+00  0.00000000E+00  0.00000000E+00  0.00000000E+00  0.00000000E+00
  0.00000000E+00  0.00000000E+00  0.00000000E+00
Coordinates of each shell                  R   N=         162
  0.00000000E+00  2.63333713E+00  0.00000000E+00  0.00000000E+00  2.63333713E+00
  0.00000000E+00  0.00000000E+00  2.63333713E+00  0.00000000E+00  0.00000000E+00
  2.63333713E+00  0.00000000E+00  0.00000000E+00  2.63333713E+00  0.00000000E+00
  2.28053660E+00  1.31666857E+00  0.00000000E+00  2.28053660E+00  1.31666857E+00
  0.00000000E+00  2.28053660E+00  1.31666857E+00  0.00000000E+00  2.28053660E+00
  1.31666857E+00  0.00000000E+00  2.28053660E+00  1.31666857E+00  0.00000000E+00
  2.28053660E+00 -1.31666857E+00  0.00000000E+00  2.28053660E+00 -1.31666857E+00
  0.00000000E+00  2.28053660E+00 -1.31666857E+00  0.00000000E+00  2.28053660E+00
 -1.31666857E+00  0.00000000E+00  2.28053660E+00 -1.31666857E+00  0.00000000E+00
  0.00000000E+00 -2.63333713E+00  0.00000000E+00  0.00000000E+00 -2.63333713E+00
  0.00000000E+00  0.00000000E+00 -2.63333713E+00  0.00000000E+00  0.00000000E+00
 -2.63333713E+00  0.00000000E+00  0.00000000E+00 -2.63333713E+00  0.00000000E+00
 -2.28053660E+00 -1.31666857E+00  0.00000000E+00 -2.28053660E+00 -1.31666857E+00
  0.00000000E+00 -2.28053660E+00 -1.31666857E+00  0.00000000E+00 -2.28053660E+00
 -1.31666857E+00  0.00000000E+00 -2.28053660E+00 -1.31666857E+00  0.00000000E+00
 -2.28053660E+00  1.31666857E+00  0.00000000E+00 -2.28053660E+00  1.31666857E+00
  0.00000000E+00 -2.28053660E+00  1.31666857E+00  0.00000000E+00 -2.28053660E+00
  1.31666857E+00  0.00000000E+00 -2.28053660E+00  1.31666857E+00  0.00000000E+00
  0.00000000E+00  4.68232938E+00  0.00000000E+00  0.00000000E+00  4.68232938E+00
  0.00000000E+00  0.00000000E+00  4.68232938E+00  0.00000000E+00  0.00000000E+00
  4.68232938E+00  0.00000000E+00  4.05501589E+00  2.34116469E+00  0.00000000E+00
  4.05501589E+00  2.34116469E+00  0.00000000E+00  4.05501589E+00  2.34116469E+00
  0.00000000E+00  4.05501589E+00  2.34116469E+00  0.00000000E+00  4.05501589E+00
 -2.34116469E+00  0.00000000E+00  4.05501589E+00 -2.34116469E+00  0.00000000E+00
  4.05501589E+00 -2.34116469E+00  0.00000000E+00  4.05501589E+00 -2.34116469E+00
  0.00000000E+00  0.00000000E+00 -4.68232938E+00  0.00000000E+00  0.00000000E+00
 -4.68232938E+00  0.00000000E+00  0.00000000E+00 -4.68232938E+00  0.00000000E+00
  0.00000000E+00 -4.68232938E+00  0.00000000E+00 -4.05501589E+00 -2.34116469E+00
  0.00000000E+00 -4.05501589E+00 -2.34116469E+00  0.00000000E+00 -4.05501589E+00
 -2.34116469E+00  0.00000000E+00 -4.05501589E+00 -2.34116469E+00  0.00000000E+00
 -4.05501589E+00  2.34116469E+00  0.00000000E+00 -4.05501589E+00  2.34116469E+00
  0.00000000E+00 -4.05501589E+00  2.34116469E+00  0.00000000E+00 -4.05501589E+00
  2.34116469E+00  0.00000000E+00
Num ILSW                                   I              100
ILSW                                       I   N=         100
           0           0           0           0           2           0
           0           0           0           0         402          -1
           5           0           0           0           0           0
           0           0           0           0           0           0
           1           1           0           0           0           0
           0           0      100000           0          -1           0
           0           0           0           0           0           0
           0           0           0           1           0           0
           0 -2000000000           1           0           0           0
           0           0           4          52           0           0
           0           0           5           0           0           0
           0           0           0          12           0           1
           0           0           0           0           0           0
           0           0           0           0           0           0
           0           0           0           0           0           0
           0           0           0           0           0           0
           0           0           0           0
Num RLSW                                   I               52
RLSW                                       R   N=          52
  8.00000000E-01  7.20000000E-01  1.00000000E+00  8.10000000E-01  2.00000000E-01
  0.00000000E+00  0.00000000E+00  1.00000000E+00  0.00000000E+00  0.00000000E+00
  0.00000000E+00  0.00000000E+00  1.00000000E+00  0.00000000E+00  0.00000000E+00
  0.00000000E+00  0.00000000E+00  1.00000000E+00  0.00000000E+00  0.00000000E+00
  0.00000000E+00  0.00000000E+00  1.00000000E+00  0.00000000E+00  0.00000000E+00
  0.00000000E+00  0.00000000E+00  1.00000000E+00  0.00000000E+00  0.00000000E+00
  0.00000000E+00  0.00000000E+00  1.00000000E+00  0.00000000E+00  0.00000000E+00
  0.00000000E+00  0.00000000E+00  0.00000000E+00  1.00000000E+00  1.00000000E+00
  0.00000000E+00  1.00000000E+00  0.00000000E+00  0.00000000E+00  0.00000000E+00
  0.00000000E+00  0.00000000E+00  0.00000000E+00  0.00000000E+00  0.00000000E+00
  0.00000000E+00  0.00000000E+00
MxBond                                     I                3
NBond                                      I   N=          12
           3           3           3           3           3           3
           1           1           1           1           1           1
IBond                                      I   N=          36
           2           6           7           1           3           8
           2           4           9           3           5          10
           4           6          11           1           5          12
           1           0           0           2           0           0
           3           0           0           4           0           0
           5           0           0           6           0           0
RBond                                      R   N=          36
  1.50000000E+00  1.50000000E+00  1.00000000E+00  1.50000000E+00  1.50000000E+00
  1.00000000E+00  1.50000000E+00  1.50000000E+00  1.00000000E+00  1.50000000E+00
  1.50000000E+00  1.00000000E+00  1.50000000E+00  1.50000000E+00  1.00000000E+00
  1.50000000E+00  1.50000000E+00  1.00000000E+00  1.00000000E+00  0.00000000E+00
  0.00000000E+00  1.00000000E+00  0.00000000E+00  0.00000000E+00  1.00000000E+00
  0.00000000E+00  0.00000000E+00  1.00000000E+00  0.00000000E+00  0.00000000E+00
  1.00000000E+00  0.00000000E+00  0.00000000E+00  1.00000000E+00  0.00000000E+00
  0.00000000E+00
Virial Ratio                               R      2.004497499649323E+00
SCF Energy                                 R     -2.323085419623870E+02
Total Energy                               R     -2.323085419623870E+02
RMS Density                                R      7.028874026753718E-09
Job Status                                 I                1
Nuclear derivative order                   I                0
External E-field                           R   N=          35
  0.00000000E+00  0.00000000E+00  0.00000000E+00  0.00000000E+00  0.00000000E+00
  0.00000000E+00  0.00000000E+00  0.00000000E+00  0.00000000E+00  0.00000000E+00
  0.00000000E+00  0.00000000E+00  0.00000000E+00  0.00000000E+00  0.00000000E+00
  0.00000000E+00  0.00000000E+00  0.00000000E+00  0.00000000E+00  0.00000000E+00
  0.00000000E+00  0.00000000E+00  0.00000000E+00  0.00000000E+00  0.00000000E+00
  0.00000000E+00  0.00000000E+00  0.00000000E+00  0.00000000E+00  0.00000000E+00
  0.00000000E+00  0.00000000E+00  0.00000000E+00  0.00000000E+00  0.00000000E+00
IOpCl                                      I                0
IROHF                                      I                0
Alpha Orbital Energies                     R   N=         144
 -1.01745086E+01 -1.01742715E+01 -1.01742715E+01 -1.01737153E+01 -1.01737152E+01
 -1.01734455E+01 -8.56366245E-01 -7.48138445E-01 -7.48138330E-01 -6.05043640E-01
 -6.05043567E-01 -5.26821853E-01 -4.63573569E-01 -4.49814883E-01 -4.24788117E-01
 -4.24787840E-01 -3.69855217E-01 -3.47633136E-01 -3.47633077E-01 -2.56426097E-01
 -2.56425889E-01 -9.32242895E-03 -9.32238176E-03  4.23401089E-02  7.70236555E-02
  7.70237144E-02  1.10936085E-01  1.10936256E-01  1.36739084E-01  1.48403347E-01
  2.68595655E-01  2.68595657E-01  2.84731288E-01  2.84731514E-01  3.04875993E-01
  3.42979885E-01  3.90078288E-01  4.04100527E-01  4.04100746E-01  4.25743421E-01
  4.40825729E-01  4.40825798E-01  4.46209497E-01  4.46210197E-01  4.50833081E-01
  5.25227619E-01  5.25227909E-01  5.35022688E-01  6.01623755E-01  6.01623927E-01
  6.03389228E-01  6.06566024E-01  6.06566140E-01  6.50712118E-01  6.85366841E-01
  7.26672113E-01  7.26672272E-01  7.36946931E-01  7.36947327E-01  8.00898999E-01
  8.41213534E-01  8.54920946E-01  8.54921497E-01  9.36434837E-01  1.00822331E+00
  1.00822453E+00  1.01471748E+00  1.08095830E+00  1.08095858E+00  1.14231879E+00
  1.14231879E+00  1.23774359E+00  1.26511725E+00  1.40547351E+00  1.44694290E+00
  1.44694463E+00  1.48747643E+00  1.54992163E+00  1.55500075E+00  1.55500082E+00
  1.58018247E+00  1.58018256E+00  1.64396755E+00  1.64396758E+00  1.71069909E+00
  1.74127910E+00  1.74127964E+00  1.77532149E+00  1.77532162E+00  1.84912997E+00
  1.89989413E+00  1.89989423E+00  1.90570569E+00  1.91465971E+00  1.92048511E+00
  1.92048519E+00  1.98725183E+00  1.98725183E+00  2.08074953E+00  2.08074966E+00
  2.19071703E+00  2.29125947E+00  2.29126076E+00  2.31778862E+00  2.34815836E+00
  2.38716079E+00  2.38716093E+00  2.55527531E+00  2.58722305E+00  2.59877125E+00
  2.59877129E+00  2.62737276E+00  2.63233043E+00  2.63233079E+00  2.64568815E+00
  2.64568826E+00  2.69887464E+00  2.71258398E+00  2.71258429E+00  2.83900968E+00
  2.83900969E+00  2.90570598E+00  2.90570825E+00  2.91198566E+00  3.04544324E+00
  3.06560632E+00  3.32363835E+00  3.32363842E+00  3.46089587E+00  3.46690551E+00
  3.46690573E+00  3.67937740E+00  3.96117949E+00  3.96117958E+00  4.07988899E+00
  4.11148973E+00  4.11148974E+00  4.83693301E+00  2.35154881E+01  2.39472704E+01
  2.39472707E+01  2.40961328E+01  2.40961331E+01  2.42006748E+01
Alpha MO coefficients                      R   N=       20736
  2.29747242E-01  1.89334994E-01  3.55568498E-14 -3.09355588E-04 -2.48679009E-16
  6.82251987E-03 -1.55740852E-13  1.79701340E-03  4.10219994E-16 -1.89493478E-03
 -9.04168517E-15 -1.83822084E-04 -1.65746562E-15 -3.26738185E-04 -5.89116765E-17
 -3.41191476E-16 -9.18583965E-04  7.69707693E-14  2.29732463E-01  1.89322836E-01
 -2.67929640E-04 -1.54673040E-04  7.90450961E-16  6.82200809E-03  1.55633354E-03
  8.98489498E-04 -1.16731252E-15 -1.89462471E-03 -1.59391174E-04 -9.20088365E-05
  2.24095154E-15 -3.26668161E-04  1.52452225E-16  4.42877220E-17  4.59278859E-04
  7.95549684E-04  2.29732463E-01  1.89322836E-01 -2.67929640E-04  1.54673040E-04
 -4.09087173E-16  6.82200809E-03  1.55633354E-03 -8.98489498E-04  8.43238972E-16
 -1.89462471E-03 -1.59391174E-04  9.20088365E-05 -1.78305402E-15 -3.26668161E-04
  1.64434135E-16 -3.74495352E-17  4.59278859E-04 -7.95549684E-04  2.29747242E-01
  1.89334994E-01  3.20476483E-14  3.09355588E-04 -1.73289948E-16  6.82251987E-03
 -1.41616012E-13 -1.79701340E-03 -1.91079910E-17 -1.89493478E-03  3.24132478E-14
  1.83822084E-04  9.54629251E-16 -3.26738185E-04  7.74686927E-17  1.27159594E-16
 -9.18583965E-04 -7.23211372E-14  2.29732463E-01  1.89322836E-01  2.67929640E-04
  1.54673040E-04  1.08458893E-16  6.82200809E-03 -1.55633354E-03 -8.98489498E-04
 -1.72852619E-16 -1.89462471E-03  1.59391174E-04  9.20088366E-05 -7.90003987E-16
 -3.26668161E-04  8.59179371E-17  5.63699030E-17  4.59278859E-04  7.95549684E-04
  2.29732463E-01  1.89322836E-01  2.67929640E-04 -1.54673040E-04 -1.03364535E-17
  6.82200809E-03 -1.55633354E-03  8.98489498E-04 -2.89452706E-16 -1.89462471E-03
  1.59391174E-04 -9.20088366E-05  9.79258775E-16 -3.26668161E-04 -2.31927843E-16
  2.57947196E-16  4.59278859E-04 -7.95549684E-04 -1.28432375E-04 -2.24853563E-03
  1.25066909E-03 -1.10193923E-15  1.50395619E-03  3.02316490E-16 -1.28447409E-04
 -2.24841031E-03  1.25068040E-03  1.30242044E-03  7.51951155E-04 -2.00024237E-16
 -1.28447409E-04 -2.24841031E-03  1.25068040E-03  1.30242044E-03 -7.51951155E-04
  2.75362817E-16 -1.28432375E-04 -2.24853563E-03  1.25066909E-03 -3.36988171E-15
 -1.50395619E-03 -1.74899095E-17 -1.28447409E-04 -2.24841031E-03  1.25068040E-03
 -1.30242044E-03 -7.51951155E-04 -2.13967988E-17 -1.28447409E-04 -2.24841031E-03
  1.25068040E-03 -1.30242044E-03  7.51951155E-04 -8.36591816E-17  3.24962547E-01
  2.67463251E-01  5.92855954E-10 -3.78673166E-05 -4.67122053E-16  1.11837974E-02
 -2.65695771E-09 -2.02009499E-05  6.75296107E-16 -2.55903199E-03  1.20742647E-10
  2.02950358E-03 -5.81327017E-16 -7.88662983E-04  1.02817709E-16  1.42802780E-16
 -2.45985396E-04  1.34082489E-09  1.62471497E-01  1.33723586E-01 -3.94650872E-04
  6.45663062E-04 -1.44472561E-16  5.59153344E-03  1.68643215E-03 -2.94111569E-03
  2.94006444E-16 -1.27856797E-03  8.01242434E-04  6.40595940E-04 -2.00541074E-16
 -3.94277499E-04  4.18352606E-17 -1.29316529E-16 -1.42017803E-03  9.61978039E-04
 -1.62471115E-01 -1.33723271E-01  3.94651129E-04  6.45663598E-04  1.53232998E-16
 -5.59152030E-03 -1.68643350E-03 -2.94111797E-03 -2.78846265E-16  1.27856496E-03
 -8.01240308E-04  6.40594852E-04  4.75925586E-16  3.94276572E-04 -1.15495010E-16
 -1.74120520E-16  1.42017934E-03  9.61978459E-04 -3.24962547E-01 -2.67463251E-01
  5.92847463E-10 -3.78673166E-05 -1.74791602E-16 -1.11837974E-02 -2.65693417E-09
 -2.02009497E-05  3.77600333E-16  2.55903199E-03  1.20887598E-10  2.02950358E-03
 -5.62732885E-16  7.88662983E-04 -5.09454188E-17  5.50506025E-17  2.45985396E-04
 -1.34080715E-09 -1.62471497E-01 -1.33723586E-01 -3.94650872E-04  6.45663062E-04
  3.03236228E-16 -5.59153344E-03  1.68643215E-03 -2.94111569E-03 -4.13863395E-16
  1.27856797E-03  8.01242434E-04  6.40595940E-04  3.66225368E-16  3.94277499E-04
 -7.17261658E-17  2.05728514E-17  1.42017803E-03 -9.61978039E-04  1.62471115E-01
  1.33723271E-01  3.94651129E-04  6.45663598E-04 -4.65771423E-17  5.59152030E-03
 -1.68643350E-03 -2.94111797E-03 -7.13996536E-17 -1.27856496E-03 -8.01240308E-04
  6.40594852E-04  2.71710662E-16 -3.94276572E-04  1.40008206E-16 -4.16420882E-17
 -1.42017934E-03 -9.61978459E-04  2.14886624E-04 -2.99475723E-03  5.54129021E-04
 -4.37344645E-11  1.48455637E-03 -7.59116711E-17  1.07428333E-04 -1.49724757E-03
  2.77142483E-04  6.70706359E-04  3.22791935E-04  3.22284317E-17 -1.07428081E-04
  1.49724405E-03 -2.77141832E-04 -6.70704870E-04  3.22791025E-04 -3.37041639E-17
 -2.14886624E-04  2.99475723E-03 -5.54129021E-04 -4.37382963E-11  1.48455637E-03
  5.77323266E-19 -1.07428333E-04  1.49724757E-03 -2.77142483E-04  6.70706359E-04
  3.22791935E-04 -2.33603585E-18  1.07428081E-04 -1.49724405E-03  2.77141832E-04
 -6.70704870E-04  3.22791025E-04 -3.28457341E-18 -2.20568369E-07 -1.81540717E-07
  8.73516655E-04  2.56986724E-11  5.01931916E-16 -7.59098871E-09 -3.91478474E-03
  1.36790345E-11 -1.13552768E-15  1.73752183E-09  1.78000454E-04 -1.37779718E-09
  9.53902060E-16  5.35320468E-10 -1.71045091E-16 -1.36339450E-16  1.66969210E-10
  1.97557895E-03  2.81419956E-01  2.31625146E-01  1.89974215E-04 -3.94645865E-04
  1.10908298E-16  9.68523400E-03 -9.93832855E-04  1.68641626E-03  8.38782949E-17
 -2.21563810E-03  1.56634777E-03  8.01562022E-04 -5.54434013E-16 -6.82970826E-04
  1.95496733E-16  4.74617822E-16  9.61970271E-04 -3.09399884E-04  2.81420177E-01
  2.31625328E-01  1.89973679E-04  3.94644988E-04  3.78056730E-16  9.68524159E-03
 -9.93830566E-04 -1.68641227E-03 -7.09011419E-16 -2.21563983E-03  1.56634885E-03
 -8.01562892E-04  6.20426718E-16 -6.82971361E-04  7.64720029E-17  2.51019813E-16
  9.61968344E-04  3.09398579E-04  2.20544748E-07  1.81521260E-07  8.73516655E-04
  2.56820765E-11  1.68493636E-16  7.59025202E-09 -3.91478474E-03  1.37955170E-11
 -2.48562467E-16 -1.73721450E-09  1.78000454E-04 -1.37769069E-09 -7.16422540E-16
 -5.35268157E-10  1.16604563E-16  1.12502356E-16 -1.66904580E-10 -1.97557895E-03
 -2.81419956E-01 -2.31625146E-01  1.89974215E-04 -3.94645865E-04  5.48434175E-16
 -9.68523400E-03 -9.93832855E-04  1.68641626E-03 -1.01908706E-15  2.21563810E-03
  1.56634777E-03  8.01562022E-04  1.29466794E-15  6.82970826E-04  1.17035184E-16
 -3.88994187E-17 -9.61970271E-04  3.09399884E-04 -2.81420177E-01 -2.31625328E-01
  1.89973679E-04  3.94644988E-04 -7.26279341E-17 -9.68524159E-03 -9.93830565E-04
 -1.68641227E-03  2.10577892E-16  2.21563983E-03  1.56634885E-03 -8.01562892E-04
 -6.24508987E-16  6.82971361E-04  4.03456313E-16  1.88465323E-16 -9.61968344E-04
 -3.09398579E-04 -1.45850947E-10  2.03272269E-09 -3.76085240E-10 -6.44405361E-05