Title Card Required                                                     
SP        UB3LYP                                                      6-311G(d,p)         
Number of atoms                            I               12
Info1-9                                    I   N=           9
          19          19           0           0           0         110
           1          18        -502
Full Title                                 C   N=           2
Title Card Required     
Route                                      C   N=           4
#p ub3lyp/6-311g(d,p) nosymm density=current    
Charge                                     I                0
Multiplicity                               I                3
Number of electrons                        I               42
Number of alpha electrons                  I               22
Number of beta electrons                   I               20
Number of basis functions                  I              144
Number of independent functions            I              144
Number of point charges in /Mol/           I                0
Number of translation vectors              I                0
Atomic numbers                             I   N=          12
           6           6           6           6           6           6
           1           1           1           1           1           1
Nuclear charges                            R   N=          12
  6.00000000E+00  6.00000000E+00  6.00000000E+00  6.00000000E+00  6.00000000E+00
  6.00000000E+00  1.00000000E+00  1.00000000E+00  1.00000000E+00  1.00000000E+00
  1.00000000E+00  1.00000000E+00
Current cartesian coordinates              R   N=          36
  0.00000000E+00  2.60232484E+00  0.00000000E+00  2.37682004E+00  1.35131103E+00
  0.00000000E+00  2.37682004E+00 -1.35131103E+00  0.00000000E+00  0.00000000E+00
 -2.60232484E+00  0.00000000E+00 -2.37682004E+00 -1.35131103E+00  0.00000000E+00
 -2.37682004E+00  1.35131103E+00  0.00000000E+00  0.00000000E+00  4.65782530E+00
  0.00000000E+00  4.10529772E+00  2.43728183E+00  0.00000000E+00  4.10529772E+00
 -2.43728183E+00  0.00000000E+00  0.00000000E+00 -4.65782530E+00  0.00000000E+00
 -4.10529772E+00 -2.43728183E+00  0.00000000E+00 -4.10529772E+00  2.43728183E+00
  0.00000000E+00
Number of symbols in /Mol/                 I                0
Force Field                                I                0
Atom Types                                 C   N=          12
                                                            
                                                            
                        
Int Atom Types                             I   N=          12
           0           0           0           0           0           0
           0           0           0           0           0           0
MM charges                                 R   N=          12
  0.00000000E+00  0.00000000E+00  0.00000000E+00  0.00000000E+00  0.00000000E+00
  0.00000000E+00  0.00000000E+00  0.00000000E+00  0.00000000E+00  0.00000000E+00
  0.00000000E+00  0.00000000E+00
Integer atomic weights                     I   N=          12
          12          12          12          12          12          12
           1           1           1           1           1           1
Real atomic weights                        R   N=          12
  1.20000000E+01  1.20000000E+01  1.20000000E+01  1.20000000E+01  1.20000000E+01
  1.20000000E+01  1.00782504E+00  1.00782504E+00  1.00782504E+00  1.00782504E+00
  1.00782504E+00  1.00782504E+00
Atom fragment info                         I   N=          12
           0           0           0           0           0           0
           0           0           0           0           0           0
Atom residue num                           I   N=          12
           0           0           0           0           0           0
           0           0           0           0           0           0
Nuclear spins                              I   N=          12
           0           0           0           0           0           0
           1           1           1           1           1           1
Nuclear ZEff                               R   N=          12
 -3.60000000E+00 -3.60000000E+00 -3.60000000E+00 -3.60000000E+00 -3.60000000E+00
 -3.60000000E+00 -1.00000000E+00 -1.00000000E+00 -1.00000000E+00 -1.00000000E+00
 -1.00000000E+00 -1.00000000E+00
Nuclear ZNuc                               R   N=          12
  6.00000000E+00  6.00000000E+00  6.00000000E+00  6.00000000E+00  6.00000000E+00
  6.00000000E+00  1.00000000E+00  1.00000000E+00  1.00000000E+00  1.00000000E+00
  1.00000000E+00  1.00000000E+00
Nuclear QMom                               R   N=          12
  0.00000000E+00  0.00000000E+00  0.00000000E+00  0.00000000E+00  0.00000000E+00
  0.00000000E+00  0.00000000E+00  0.00000000E+00  0.00000000E+00  0.00000000E+00
  0.00000000E+00  0.00000000E+00
Nuclear GFac                               R   N=          12
  0.00000000E+00  0.00000000E+00  0.00000000E+00  0.00000000E+00  0.00000000E+00
  0.00000000E+00  2.79284600E+00  2.79284600E+00  2.79284600E+00  2.79284600E+00
  2.79284600E+00  2.79284600E+00
MicOpt                                     I   N=          12
          -1          -1          -1          -1          -1          -1
          -1          -1          -1          -1          -1          -1
Number of residues                         I                0
Number of secondary structures             I                0
Number of contracted shells                I               54
Number of primitive shells                 I              108
Pure/Cartesian d shells                    I                0
Pure/Cartesian f shells                    I                0
Highest angular momentum                   I                2
Largest degree of contraction              I                6
Shell types                                I   N=          54
           0          -1          -1          -1          -2           0
          -1          -1          -1          -2           0          -1
          -1          -1          -2           0          -1          -1
          -1          -2           0          -1          -1          -1
          -2           0          -1          -1          -1          -2
           0           0           0           1           0           0
           0           1           0           0           0           1
           0           0           0           1           0           0
           0           1           0           0           0           1
Number of primitives per shell             I   N=          54
           6           3           1           1           1           6
           3           1           1           1           6           3
           1           1           1           6           3           1
           1           1           6           3           1           1
           1           6           3           1           1           1
           3           1           1           1           3           1
           1           1           3           1           1           1
           3           1           1           1           3           1
           1           1           3           1           1           1
Shell to atom map                          I   N=          54
           1           1           1           1           1           2
           2           2           2           2           3           3
           3           3           3           4           4           4
           4           4           5           5           5           5
           5           6           6           6           6           6
           7           7           7           7           8           8
           8           8           9           9           9           9
          10          10          10          10          11          11
          11          11          12          12          12          12
Primitive exponents                        R   N=         108
  4.56324000E+03  6.82024000E+02  1.54973000E+02  4.44553000E+01  1.30290000E+01
  1.82773000E+00  2.09642000E+01  4.80331000E+00  1.45933000E+00  4.83456000E-01
  1.45585000E-01  6.26000000E-01  4.56324000E+03  6.82024000E+02  1.54973000E+02
  4.44553000E+01  1.30290000E+01  1.82773000E+00  2.09642000E+01  4.80331000E+00
  1.45933000E+00  4.83456000E-01  1.45585000E-01  6.26000000E-01  4.56324000E+03
  6.82024000E+02  1.54973000E+02  4.44553000E+01  1.30290000E+01  1.82773000E+00
  2.09642000E+01  4.80331000E+00  1.45933000E+00  4.83456000E-01  1.45585000E-01
  6.26000000E-01  4.56324000E+03  6.82024000E+02  1.54973000E+02  4.44553000E+01
  1.30290000E+01  1.82773000E+00  2.09642000E+01  4.80331000E+00  1.45933000E+00
  4.83456000E-01  1.45585000E-01  6.26000000E-01  4.56324000E+03  6.82024000E+02
  1.54973000E+02  4.44553000E+01  1.30290000E+01  1.82773000E+00  2.09642000E+01
  4.80331000E+00  1.45933000E+00  4.83456000E-01  1.45585000E-01  6.26000000E-01
  4.56324000E+03  6.82024000E+02  1.54973000E+02  4.44553000E+01  1.30290000E+01
  1.82773000E+00  2.09642000E+01  4.80331000E+00  1.45933000E+00  4.83456000E-01
  1.45585000E-01  6.26000000E-01  3.38650000E+01  5.09479000E+00  1.15879000E+00
  3.25840000E-01  1.02741000E-01  7.50000000E-01  3.38650000E+01  5.09479000E+00
  1.15879000E+00  3.25840000E-01  1.02741000E-01  7.50000000E-01  3.38650000E+01
  5.09479000E+00  1.15879000E+00  3.25840000E-01  1.02741000E-01  7.50000000E-01
  3.38650000E+01  5.09479000E+00  1.15879000E+00  3.25840000E-01  1.02741000E-01
  7.50000000E-01  3.38650000E+01  5.09479000E+00  1.15879000E+00  3.25840000E-01
  1.02741000E-01  7.50000000E-01  3.38650000E+01  5.09479000E+00  1.15879000E+00
  3.25840000E-01  1.02741000E-01  7.50000000E-01
Contraction coefficients                   R   N=         108
  1.96665025E-03  1.52306019E-02  7.61269097E-02  2.60801033E-01  6.16462078E-01
  2.21006028E-01  1.14660081E-01  9.19999648E-01 -3.03068213E-03  1.00000000E+00
  1.00000000E+00  1.00000000E+00  1.96665025E-03  1.52306019E-02  7.61269097E-02
  2.60801033E-01  6.16462078E-01  2.21006028E-01  1.14660081E-01  9.19999648E-01
 -3.03068213E-03  1.00000000E+00  1.00000000E+00  1.00000000E+00  1.96665025E-03
  1.52306019E-02  7.61269097E-02  2.60801033E-01  6.16462078E-01  2.21006028E-01
  1.14660081E-01  9.19999648E-01 -3.03068213E-03  1.00000000E+00  1.00000000E+00
  1.00000000E+00  1.96665025E-03  1.52306019E-02  7.61269097E-02  2.60801033E-01
  6.16462078E-01  2.21006028E-01  1.14660081E-01  9.19999648E-01 -3.03068213E-03
  1.00000000E+00  1.00000000E+00  1.00000000E+00  1.96665025E-03  1.52306019E-02
  7.61269097E-02  2.60801033E-01  6.16462078E-01  2.21006028E-01  1.14660081E-01
  9.19999648E-01 -3.03068213E-03  1.00000000E+00  1.00000000E+00  1.00000000E+00
  1.96665025E-03  1.52306019E-02  7.61269097E-02  2.60801033E-01  6.16462078E-01
  2.21006028E-01  1.14660081E-01  9.19999648E-01 -3.03068213E-03  1.00000000E+00
  1.00000000E+00  1.00000000E+00  2.54938145E-02  1.90373109E-01  8.52161486E-01
  1.00000000E+00  1.00000000E+00  1.00000000E+00  2.54938145E-02  1.90373109E-01
  8.52161486E-01  1.00000000E+00  1.00000000E+00  1.00000000E+00  2.54938145E-02
  1.90373109E-01  8.52161486E-01  1.00000000E+00  1.00000000E+00  1.00000000E+00
  2.54938145E-02  1.90373109E-01  8.52161486E-01  1.00000000E+00  1.00000000E+00
  1.00000000E+00  2.54938145E-02  1.90373109E-01  8.52161486E-01  1.00000000E+00
  1.00000000E+00  1.00000000E+00  2.54938145E-02  1.90373109E-01  8.52161486E-01
  1.00000000E+00  1.00000000E+00  1.00000000E+00
P(S=P) Contraction coefficients            R   N=         108
  0.00000000E+00  0.00000000E+00  0.00000000E+00  0.00000000E+00  0.00000000E+00
  0.00000000E+00  4.02486927E-02  2.37593957E-01  8.15853851E-01  1.00000000E+00
  1.00000000E+00  0.00000000E+00  0.00000000E+00  0.00000000E+00  0.00000000E+00
  0.00000000E+00  0.00000000E+00  0.00000000E+00  4.02486927E-02  2.37593957E-01
  8.15853851E-01  1.00000000E+00  1.00000000E+00  0.00000000E+00  0.00000000E+00
  0.00000000E+00  0.00000000E+00  0.00000000E+00  0.00000000E+00  0.00000000E+00
  4.02486927E-02  2.37593957E-01  8.15853851E-01  1.00000000E+00  1.00000000E+00
  0.00000000E+00  0.00000000E+00  0.00000000E+00  0.00000000E+00  0.00000000E+00
  0.00000000E+00  0.00000000E+00  4.02486927E-02  2.37593957E-01  8.15853851E-01
  1.00000000E+00  1.00000000E+00  0.00000000E+00  0.00000000E+00  0.00000000E+00
  0.00000000E+00  0.00000000E+00  0.00000000E+00  0.00000000E+00  4.02486927E-02
  2.37593957E-01  8.15853851E-01  1.00000000E+00  1.00000000E+00  0.00000000E+00
  0.00000000E+00  0.00000000E+00  0.00000000E+00  0.00000000E+00  0.00000000E+00
  0.00000000E+00  4.02486927E-02  2.37593957E-01  8.15853851E-01  1.00000000E+00
  1.00000000E+00  0.00000000E+00  0.00000000E+00  0.00000000E+00  0.00000000E+00
  0.00000000E+00  0.00000000E+00  0.00000000E+00  0.00000000E+00  0.00000000E+00
  0.00000000E+00  0.00000000E+00  0.00000000E+00  0.00000000E+00  0.00000000E+00
  0.00000000E+00  0.00000000E+00  0.00000000E+00  0.00000000E+00  0.00000000E+00
  0.00000000E+00  0.00000000E+00  0.00000000E+00  0.00000000E+00  0.00000000E+00
  0.00000000E+00  0.00000000E+00  0.00000000E+00  0.00000000E+00  0.00000000E+00
  0.00000000E+00  0.00000000E+00  0.00000000E+00  0.00000000E+00  0.00000000E+00
  0.00000000E+00  0.00000000E+00  0.00000000E+00
Coordinates of each shell                  R   N=         162
  0.00000000E+00  2.60232484E+00  0.00000000E+00  0.00000000E+00  2.60232484E+00
  0.00000000E+00  0.00000000E+00  2.60232484E+00  0.00000000E+00  0.00000000E+00
  2.60232484E+00  0.00000000E+00  0.00000000E+00  2.60232484E+00  0.00000000E+00
  2.37682004E+00  1.35131103E+00  0.00000000E+00  2.37682004E+00  1.35131103E+00
  0.00000000E+00  2.37682004E+00  1.35131103E+00  0.00000000E+00  2.37682004E+00
  1.35131103E+00  0.00000000E+00  2.37682004E+00  1.35131103E+00  0.00000000E+00
  2.37682004E+00 -1.35131103E+00  0.00000000E+00  2.37682004E+00 -1.35131103E+00
  0.00000000E+00  2.37682004E+00 -1.35131103E+00  0.00000000E+00  2.37682004E+00
 -1.35131103E+00  0.00000000E+00  2.37682004E+00 -1.35131103E+00  0.00000000E+00
  0.00000000E+00 -2.60232484E+00  0.00000000E+00  0.00000000E+00 -2.60232484E+00
  0.00000000E+00  0.00000000E+00 -2.60232484E+00  0.00000000E+00  0.00000000E+00
 -2.60232484E+00  0.00000000E+00  0.00000000E+00 -2.60232484E+00  0.00000000E+00
 -2.37682004E+00 -1.35131103E+00  0.00000000E+00 -2.37682004E+00 -1.35131103E+00
  0.00000000E+00 -2.37682004E+00 -1.35131103E+00  0.00000000E+00 -2.37682004E+00
 -1.35131103E+00  0.00000000E+00 -2.37682004E+00 -1.35131103E+00  0.00000000E+00
 -2.37682004E+00  1.35131103E+00  0.00000000E+00 -2.37682004E+00  1.35131103E+00
  0.00000000E+00 -2.37682004E+00  1.35131103E+00  0.00000000E+00 -2.37682004E+00
  1.35131103E+00  0.00000000E+00 -2.37682004E+00  1.35131103E+00  0.00000000E+00
  0.00000000E+00  4.65782530E+00  0.00000000E+00  0.00000000E+00  4.65782530E+00
  0.00000000E+00  0.00000000E+00  4.65782530E+00  0.00000000E+00  0.00000000E+00
  4.65782530E+00  0.00000000E+00  4.10529772E+00  2.43728183E+00  0.00000000E+00
  4.10529772E+00  2.43728183E+00  0.00000000E+00  4.10529772E+00  2.43728183E+00
  0.00000000E+00  4.10529772E+00  2.43728183E+00  0.00000000E+00  4.10529772E+00
 -2.43728183E+00  0.00000000E+00  4.10529772E+00 -2.43728183E+00  0.00000000E+00
  4.10529772E+00 -2.43728183E+00  0.00000000E+00  4.10529772E+00 -2.43728183E+00
  0.00000000E+00  0.00000000E+00 -4.65782530E+00  0.00000000E+00  0.00000000E+00
 -4.65782530E+00  0.00000000E+00  0.00000000E+00 -4.65782530E+00  0.00000000E+00
  0.00000000E+00 -4.65782530E+00  0.00000000E+00 -4.10529772E+00 -2.43728183E+00
  0.00000000E+00 -4.10529772E+00 -2.43728183E+00  0.00000000E+00 -4.10529772E+00
 -2.43728183E+00  0.00000000E+00 -4.10529772E+00 -2.43728183E+00  0.00000000E+00
 -4.10529772E+00  2.43728183E+00  0.00000000E+00 -4.10529772E+00  2.43728183E+00
  0.00000000E+00 -4.10529772E+00  2.43728183E+00  0.00000000E+00 -4.10529772E+00
  2.43728183E+00  0.00000000E+00
Num ILSW                                   I              100
ILSW                                       I   N=         100
           1           0           0           0           2           0
           0           0           0           0         402          -1
           5           0           0           0           0           0
           0           0           0           0           0           0
           1           1           0           0           0           0
           0           0      100000           0          -1           0
           0           0           0           0           0           0
           0           0           0           1           0           0
           0 -2000000000           1           0           0           0
           0           0           4          52           0           0
           0           0           5           0           0           0
           0           0           0          12           0           1
           0           0           0           0           0           0
           0           0           0           0           0           0
           0           0           0           0           0           0
           0           0           0           0           0           0
           0           0           0           0
Num RLSW                                   I               52
RLSW                                       R   N=          52
  8.00000000E-01  7.20000000E-01  1.00000000E+00  8.10000000E-01  2.00000000E-01
  0.00000000E+00  0.00000000E+00  1.00000000E+00  0.00000000E+00  0.00000000E+00
  0.00000000E+00  0.00000000E+00  1.00000000E+00  0.00000000E+00  0.00000000E+00
  0.00000000E+00  0.00000000E+00  1.00000000E+00  0.00000000E+00  0.00000000E+00
  0.00000000E+00  0.00000000E+00  1.00000000E+00  0.00000000E+00  0.00000000E+00
  0.00000000E+00  0.00000000E+00  1.00000000E+00  0.00000000E+00  0.00000000E+00
  0.00000000E+00  0.00000000E+00  1.00000000E+00  0.00000000E+00  0.00000000E+00
  0.00000000E+00  0.00000000E+00  0.00000000E+00  1.00000000E+00  1.00000000E+00
  0.00000000E+00  1.00000000E+00  0.00000000E+00  0.00000000E+00  0.00000000E+00
  0.00000000E+00  0.00000000E+00  0.00000000E+00  0.00000000E+00  0.00000000E+00
  0.00000000E+00  0.00000000E+00
MxBond                                     I                3
NBond                                      I   N=          12
           3           3           3           3           3           3
           1           1           1           1           1           1
IBond                                      I   N=          36
           2           6           7           1           3           8
           2           4           9           3           5          10
           4           6          11           1           5          12
           1           0           0           2           0           0
           3           0           0           4           0           0
           5           0           0           6           0           0
RBond                                      R   N=          36
  1.50000000E+00  1.50000000E+00  1.00000000E+00  1.50000000E+00  1.00000000E+00
  1.00000000E+00  1.00000000E+00  1.50000000E+00  1.00000000E+00  1.50000000E+00
  1.50000000E+00  1.00000000E+00  1.50000000E+00  1.00000000E+00  1.00000000E+00
  1.50000000E+00  1.00000000E+00  1.00000000E+00  1.00000000E+00  0.00000000E+00
  0.00000000E+00  1.00000000E+00  0.00000000E+00  0.00000000E+00  1.00000000E+00
  0.00000000E+00  0.00000000E+00  1.00000000E+00  0.00000000E+00  0.00000000E+00
  1.00000000E+00  0.00000000E+00  0.00000000E+00  1.00000000E+00  0.00000000E+00
  0.00000000E+00
Virial Ratio                               R      2.004361464252062E+00
SCF Energy                                 R     -2.321311187265179E+02
Total Energy                               R     -2.321311187265179E+02
S**2                                       R      2.006385317694011E+00
S**2 after annihilation                    R      2.000020349893014E+00
RMS Density                                R      7.731488099352415E-09
Job Status                                 I                1
Nuclear derivative order                   I                0
External E-field                           R   N=          35
  0.00000000E+00  0.00000000E+00  0.00000000E+00  0.00000000E+00  0.00000000E+00
  0.00000000E+00  0.00000000E+00  0.00000000E+00  0.00000000E+00  0.00000000E+00
  0.00000000E+00  0.00000000E+00  0.00000000E+00  0.00000000E+00  0.00000000E+00
  0.00000000E+00  0.00000000E+00  0.00000000E+00  0.00000000E+00  0.00000000E+00
  0.00000000E+00  0.00000000E+00  0.00000000E+00  0.00000000E+00  0.00000000E+00
  0.00000000E+00  0.00000000E+00  0.00000000E+00  0.00000000E+00  0.00000000E+00
  0.00000000E+00  0.00000000E+00  0.00000000E+00  0.00000000E+00  0.00000000E+00
IOpCl                                      I                1
IROHF                                      I                0
Alpha Orbital Energies                     R   N=         144
 -1.02261112E+01 -1.02260948E+01 -1.01650575E+01 -1.01650282E+01 -1.01646589E+01
 -1.01646532E+01 -8.57285594E-01 -7.66107672E-01 -7.42706852E-01 -6.15272754E-01
 -6.08712667E-01 -5.25130538E-01 -4.76274924E-01 -4.49199530E-01 -4.32430259E-01
 -4.21163184E-01 -3.86664585E-01 -3.59393883E-01 -3.46585896E-01 -2.96337720E-01
 -2.66148689E-01 -8.19286495E-02 -4.17336527E-02  4.08582495E-02  6.92741351E-02
  8.29573151E-02  1.02268357E-01  1.04411115E-01  1.08720347E-01  1.31858847E-01
  2.45649989E-01  2.52624304E-01  2.66161792E-01  2.70079614E-01  3.00523091E-01
  3.42544083E-01  3.78879663E-01  3.85545060E-01  3.95726966E-01  4.01709240E-01
  4.22336407E-01  4.23045716E-01  4.26889629E-01  4.42708128E-01  4.48615844E-01
  5.07022146E-01  5.07811009E-01  5.12127099E-01  5.84554594E-01  5.86226438E-01
  5.87129390E-01  6.04360438E-01  6.10852399E-01  6.36568303E-01  6.77630023E-01
  7.06499035E-01  7.13622911E-01  7.17143784E-01  7.31956561E-01  7.65663108E-01
  8.13081189E-01  8.33963247E-01  8.44583406E-01  9.29710808E-01  9.89704151E-01
  9.90002090E-01  9.98682197E-01  1.05845857E+00  1.06526836E+00  1.10685141E+00
  1.12428638E+00  1.22815112E+00  1.27686858E+00  1.37873397E+00  1.42832579E+00
  1.43151641E+00  1.45417093E+00  1.52597369E+00  1.53112732E+00  1.53495178E+00
  1.54708771E+00  1.55825633E+00  1.60233305E+00  1.63426730E+00  1.70937027E+00
  1.71777313E+00  1.72750252E+00  1.76035844E+00  1.77572890E+00  1.83423624E+00
  1.86255578E+00  1.86590692E+00  1.87381232E+00  1.88986050E+00  1.89108947E+00
  1.90358261E+00  1.95328780E+00  1.95985247E+00  2.03823159E+00  2.07527908E+00
  2.18942982E+00  2.27419782E+00  2.27699863E+00  2.28032632E+00  2.28060840E+00
  2.34002159E+00  2.34587257E+00  2.52810144E+00  2.54405005E+00  2.57682012E+00
  2.57905961E+00  2.60339980E+00  2.61579837E+00  2.62418735E+00  2.63751116E+00
  2.64758979E+00  2.66674280E+00  2.68453341E+00  2.70750988E+00  2.79162059E+00
  2.82142372E+00  2.82863714E+00  2.84158113E+00  2.89766015E+00  2.98997220E+00
  2.99507197E+00  3.25254088E+00  3.26546716E+00  3.40533783E+00  3.41288191E+00
  3.42269031E+00  3.56057741E+00  3.93093505E+00  3.97296392E+00  4.02648201E+00
  4.10844003E+00  4.12321550E+00  4.75385797E+00  2.35316332E+01  2.38589604E+01
  2.39077862E+01  2.39901875E+01  2.40077695E+01  2.40928426E+01
Beta Orbital Energies                      R   N=         144
 -1.02208309E+01 -1.02208220E+01 -1.01602391E+01 -1.01602142E+01 -1.01598045E+01
 -1.01598037E+01 -8.39305282E-01 -7.42660393E-01 -7.29145511E-01 -5.98600196E-01
 -5.97821995E-01 -5.20026345E-01 -4.67069641E-01 -4.41208798E-01 -4.26049282E-01
 -4.17789375E-01 -3.53223219E-01 -3.42454188E-01 -3.35616891E-01 -2.27696256E-01
 -1.90816059E-01  7.99027493E-04  1.21243451E-02  4.28046175E-02  7.09016913E-02
  8.44026781E-02  1.08346598E-01  1.11999416E-01  1.35500888E-01  1.53275302E-01
  2.54282265E-01  2.60089454E-01  2.71516080E-01  2.72656715E-01  3.05381441E-01
  3.46352238E-01  3.99694126E-01  4.00646985E-01  4.11758764E-01  4.13714848E-01
  4.34624115E-01  4.36409578E-01  4.47350652E-01  4.51900412E-01  4.65050012E-01
  5.11694518E-01  5.28484153E-01  5.37980058E-01  5.91173551E-01  5.93496344E-01
  6.07441127E-01  6.08827735E-01  6.14487549E-01  6.43585224E-01  6.83766234E-01
  7.12629049E-01  7.21360125E-01  7.27731746E-01  7.42855672E-01  7.75423336E-01
  8.17804374E-01  8.43807194E-01  8.47443960E-01  9.47508219E-01  1.00220103E+00
  1.00288690E+00  1.01665667E+00  1.07755115E+00  1.07961618E+00  1.13172860E+00
  1.13971091E+00  1.23899721E+00  1.29075555E+00  1.38197953E+00  1.43412171E+00
  1.44022893E+00  1.47231084E+00  1.54023695E+00  1.54206133E+00  1.55211515E+00
  1.55442837E+00  1.56526125E+00  1.61206112E+00  1.64861817E+00  1.71781233E+00
  1.72260667E+00  1.73032618E+00  1.77229631E+00  1.78426596E+00  1.83483017E+00
  1.87571363E+00  1.88609417E+00  1.88955350E+00  1.90210351E+00  1.90422947E+00
  1.91713622E+00  1.96420223E+00  1.96874639E+00  2.05399641E+00  2.09233741E+00
  2.18929924E+00  2.27454175E+00  2.27910960E+00  2.30026243E+00  2.30813440E+00
  2.35005964E+00  2.35700800E+00  2.54794263E+00  2.55711672E+00  2.57911461E+00
  2.58392793E+00  2.60798027E+00  2.62364450E+00  2.62638061E+00  2.63877472E+00
  2.64955423E+00  2.68961244E+00  2.69663452E+00  2.73580035E+00  2.82338582E+00
  2.82563192E+00  2.84481056E+00  2.85628983E+00  2.90218629E+00  2.99613503E+00
  3.02427676E+00  3.26053816E+00  3.26934535E+00  3.41318199E+00  3.41998833E+00
  3.42731739E+00  3.56606365E+00  3.94199936E+00  3.98269479E+00  4.03858533E+00
  4.12265325E+00  4.13322696E+00  4.76985405E+00  2.35375532E+01  2.38653401E+01
  2.39137186E+01  2.39963050E+01  2.40132502E+01  2.40984558E+01
Alpha MO coefficients                      R   N=       20736
  3.97960983E-01  3.27602692E-01 -5.53301959E-13  1.49334018E-04  3.75573224E-16
  1.37419723E-02  2.50907083E-13 -7.73198758E-05 -4.32554738E-16 -1.45836828E-02
 -1.00578360E-12  8.78946556E-03 -4.59903072E-16 -1.09451198E-03  5.49838154E-17
  1.44881612E-16  2.61476451E-05  2.01433037E-14  1.45684259E-03  1.28748856E-03
 -4.38579700E-04  4.09140926E-04  2.50090525E-16 -3.20946990E-04  1.53100800E-03
 -1.78679573E-03 -4.97334098E-16  1.10416447E-02 -5.61950576E-03 -3.34515460E-03
  8.71190563E-16  3.20065324E-04 -4.55019266E-17  2.04219710E-17 -9.22050010E-04
  9.08542685E-04 -1.45684263E-03 -1.28748860E-03  4.38579714E-04  4.09140931E-04
 -2.71649212E-16  3.20947004E-04 -1.53100806E-03 -1.78679574E-03  4.21256454E-16
 -1.10416447E-02  5.61950581E-03 -3.34515462E-03 -6.86527962E-16 -3.20065335E-04
 -2.86941715E-17 -1.25559205E-17  9.22050019E-04  9.08542714E-04 -3.97960995E-01
 -3.27602702E-01 -5.55654668E-13  1.49334021E-04 -7.76425519E-17 -1.37419727E-02
  2.50955502E-13 -7.73198645E-05  6.68687768E-17  1.45836830E-02 -8.45129376E-13
  8.78946566E-03  2.79973108E-16  1.09451202E-03 -1.35700767E-16 -2.23978798E-17
 -2.61476415E-05 -1.81808546E-14 -1.45684263E-03 -1.28748860E-03 -4.38579714E-04
  4.09140931E-04 -5.99278640E-17  3.20947004E-04  1.53100806E-03 -1.78679574E-03
  1.17196655E-16 -1.10416447E-02 -5.61950581E-03 -3.34515462E-03 -5.22110719E-16
 -3.20065335E-04 -7.46778740E-17 -6.45713343E-19  9.22050019E-04 -9.08542714E-04
  1.45684259E-03  1.28748856E-03  4.38579700E-04  4.09140926E-04  2.94567142E-17
 -3.20946990E-04 -1.53100800E-03 -1.78679573E-03  2.28307229E-17  1.10416447E-02
  5.61950576E-03 -3.34515460E-03  6.41960699E-16  3.20065324E-04  1.73419104E-16
  3.86604960E-17 -9.22050010E-04 -9.08542685E-04  3.81942279E-04 -4.14989062E-03
 -4.60097758E-04  2.94865768E-14  1.67945568E-03 -2.60326959E-17 -1.41534559E-04
  5.32216433E-04  1.27279713E-03  1.91555467E-04  4.38847962E-05 -5.57254174E-17
  1.41534566E-04 -5.32216425E-04 -1.27279715E-03 -1.91555479E-04  4.38848023E-05
 -5.85844875E-19 -3.81942284E-04  4.14989072E-03  4.60097736E-04  2.28229281E-14
  1.67945573E-03 -3.84767109E-17  1.41534566E-04 -5.32216425E-04 -1.27279715E-03
  1.91555479E-04  4.38848023E-05 -1.01938890E-17 -1.41534559E-04  5.32216433E-04
  1.27279713E-03 -1.91555467E-04  4.38847962E-05 -6.39987259E-17  3.97949776E-01
  3.27708299E-01 -5.53513686E-13  1.11272219E-04 -5.07476739E-16  1.27658398E-02
  2.50116143E-13  3.69826388E-04  1.15565482E-15 -6.60631121E-03 -1.62605289E-12
  3.25038674E-03 -7.83284659E-16 -1.22801802E-03 -2.75089217E-16 -5.99379939E-16
 -1.20052406E-04  1.87085585E-14  1.39334703E-03  1.31372625E-03 -4.70088402E-04
  1.72946987E-04  1.09600204E-16 -4.64084437E-04  1.87864854E-03 -2.99265764E-04
 -1.46837812E-16  1.57722380E-03 -1.85908715E-03 -6.70719303E-04  1.19061264E-16
  3.61139027E-04  3.35533355E-16 -1.57025285E-16 -2.69218377E-04  9.56347619E-04
  1.39334698E-03  1.31372620E-03 -4.70088388E-04 -1.72946975E-04  4.49871615E-16
 -4.64084427E-04  1.87864850E-03  2.99265709E-04 -6.77358008E-16  1.57722347E-03
 -1.85908697E-03  6.70719203E-04  2.16337110E-16  3.61139017E-04  2.82574779E-16
  2.09382456E-16 -2.69218349E-04 -9.56347592E-04  3.97949764E-01  3.27708289E-01
  5.55010250E-13 -1.11272215E-04 -8.28093988E-16  1.27658394E-02 -2.52860860E-13
 -3.69826390E-04  9.87290314E-16 -6.60631077E-03  1.64489810E-12 -3.25038647E-03
 -2.35916056E-16 -1.22801798E-03  2.99480056E-16  1.45907851E-17 -1.20052406E-04
  1.85053887E-14  1.39334698E-03  1.31372621E-03  4.70088388E-04 -1.72946975E-04
 -2.08241651E-16 -4.64084427E-04 -1.87864850E-03  2.99265709E-04  1.85519164E-16
  1.57722347E-03  1.85908697E-03  6.70719201E-04 -9.77616467E-17  3.61139017E-04
  1.92418414E-16  1.46172383E-16 -2.69218349E-04  9.56347592E-04  1.39334702E-03
  1.31372624E-03  4.70088402E-04  1.72946987E-04  6.95949110E-16 -4.64084437E-04