Title Card Required                                                     
SP        UB3LYP                                                      6-311G(d,p)         
Number of atoms                            I               16
Info1-9                                    I   N=           9
          23          23           0           0           0         110
           1          18        -502
Full Title                                 C   N=           2
Title Card Required     
Route                                      C   N=           4
#p ub3lyp/6-311g(d,p) nosymm density=current    
Charge                                     I                0
Multiplicity                               I                3
Number of electrons                        I               56
Number of alpha electrons                  I               29
Number of beta electrons                   I               27
Number of basis functions                  I              192
Number of independent functions            I              192
Number of point charges in /Mol/           I                0
Number of translation vectors              I                0
Atomic numbers                             I   N=          16
           6           6           6           6           6           6
           1           1           1           1           1           1
           1           1           5           7
Nuclear charges                            R   N=          16
  6.00000000E+00  6.00000000E+00  6.00000000E+00  6.00000000E+00  6.00000000E+00
  6.00000000E+00  1.00000000E+00  1.00000000E+00  1.00000000E+00  1.00000000E+00
  1.00000000E+00  1.00000000E+00  1.00000000E+00  1.00000000E+00  5.00000000E+00
  7.00000000E+00
Current cartesian coordinates              R   N=          48
  1.16486498E-01 -3.53846870E+00  0.00000000E+00 -2.48651486E+00  2.46178969E+00
  0.00000000E+00  0.00000000E+00  3.37644170E+00  0.00000000E+00  2.42210544E+00
  2.37723956E+00  0.00000000E+00  2.58576328E+00 -2.55088838E+00  0.00000000E+00
  3.51300842E+00 -1.00941611E-01  0.00000000E+00 -3.93157709E+00  3.91502876E+00
  0.00000000E+00 -5.36987788E+00  1.41368522E-01  0.00000000E+00 -4.25472404E+00
 -3.97905457E+00  0.00000000E+00  1.21225931E-01 -5.59823050E+00  0.00000000E+00
  4.07712191E+00 -3.96611562E+00  0.00000000E+00  5.56625822E+00 -1.70188735E-02
  0.00000000E+00  3.86328617E+00  3.83872162E+00  0.00000000E+00 -3.04812824E-03
  5.43046628E+00  0.00000000E+00 -2.55068996E+00 -2.49240514E+00  0.00000000E+00
 -3.46004318E+00  7.79738794E-02  0.00000000E+00
Number of symbols in /Mol/                 I                0
Force Field                                I                0
Atom Types                                 C   N=          16
                                                            
                                                            
                                                            
            
Int Atom Types                             I   N=          16
           0           0           0           0           0           0
           0           0           0           0           0           0
           0           0           0           0
MM charges                                 R   N=          16
  0.00000000E+00  0.00000000E+00  0.00000000E+00  0.00000000E+00  0.00000000E+00
  0.00000000E+00  0.00000000E+00  0.00000000E+00  0.00000000E+00  0.00000000E+00
  0.00000000E+00  0.00000000E+00  0.00000000E+00  0.00000000E+00  0.00000000E+00
  0.00000000E+00
Integer atomic weights                     I   N=          16
          12          12          12          12          12          12
           1           1           1           1           1           1
           1           1          11          14
Real atomic weights                        R   N=          16
  1.20000000E+01  1.20000000E+01  1.20000000E+01  1.20000000E+01  1.20000000E+01
  1.20000000E+01  1.00782504E+00  1.00782504E+00  1.00782504E+00  1.00782504E+00
  1.00782504E+00  1.00782504E+00  1.00782504E+00  1.00782504E+00  1.10093053E+01
  1.40030740E+01
Atom fragment info                         I   N=          16
           0           0           0           0           0           0
           0           0           0           0           0           0
           0           0           0           0
Atom residue num                           I   N=          16
           0           0           0           0           0           0
           0           0           0           0           0           0
           0           0           0           0
Nuclear spins                              I   N=          16
           0           0           0           0           0           0
           1           1           1           1           1           1
           1           1           3           2
Nuclear ZEff                               R   N=          16
 -3.60000000E+00 -3.60000000E+00 -3.60000000E+00 -3.60000000E+00 -3.60000000E+00
 -3.60000000E+00 -1.00000000E+00 -1.00000000E+00 -1.00000000E+00 -1.00000000E+00
 -1.00000000E+00 -1.00000000E+00 -1.00000000E+00 -1.00000000E+00 -2.75000000E+00
 -4.55000000E+00
Nuclear ZNuc                               R   N=          16
  6.00000000E+00  6.00000000E+00  6.00000000E+00  6.00000000E+00  6.00000000E+00
  6.00000000E+00  1.00000000E+00  1.00000000E+00  1.00000000E+00  1.00000000E+00
  1.00000000E+00  1.00000000E+00  1.00000000E+00  1.00000000E+00  5.00000000E+00
  7.00000000E+00
Nuclear QMom                               R   N=          16
  0.00000000E+00  0.00000000E+00  0.00000000E+00  0.00000000E+00  0.00000000E+00
  0.00000000E+00  0.00000000E+00  0.00000000E+00  0.00000000E+00  0.00000000E+00
  0.00000000E+00  0.00000000E+00  0.00000000E+00  0.00000000E+00  4.05900000E+00
  2.04400000E+00
Nuclear GFac                               R   N=          16
  0.00000000E+00  0.00000000E+00  0.00000000E+00  0.00000000E+00  0.00000000E+00
  0.00000000E+00  2.79284600E+00  2.79284600E+00  2.79284600E+00  2.79284600E+00
  2.79284600E+00  2.79284600E+00  2.79284600E+00  2.79284600E+00  2.68863700E+00
  4.03761000E-01
MicOpt                                     I   N=          16
          -1          -1          -1          -1          -1          -1
          -1          -1          -1          -1          -1          -1
          -1          -1          -1          -1
Number of residues                         I                0
Number of secondary structures             I                0
Number of contracted shells                I               72
Number of primitive shells                 I              144
Pure/Cartesian d shells                    I                0
Pure/Cartesian f shells                    I                0
Highest angular momentum                   I                2
Largest degree of contraction              I                6
Shell types                                I   N=          72
           0          -1          -1          -1          -2           0
          -1          -1          -1          -2           0          -1
          -1          -1          -2           0          -1          -1
          -1          -2           0          -1          -1          -1
          -2           0          -1          -1          -1          -2
           0           0           0           1           0           0
           0           1           0           0           0           1
           0           0           0           1           0           0
           0           1           0           0           0           1
           0           0           0           1           0           0
           0           1           0          -1          -1          -1
          -2           0          -1          -1          -1          -2
Number of primitives per shell             I   N=          72
           6           3           1           1           1           6
           3           1           1           1           6           3
           1           1           1           6           3           1
           1           1           6           3           1           1
           1           6           3           1           1           1
           3           1           1           1           3           1
           1           1           3           1           1           1
           3           1           1           1           3           1
           1           1           3           1           1           1
           3           1           1           1           3           1
           1           1           6           3           1           1
           1           6           3           1           1           1
Shell to atom map                          I   N=          72
           1           1           1           1           1           2
           2           2           2           2           3           3
           3           3           3           4           4           4
           4           4           5           5           5           5
           5           6           6           6           6           6
           7           7           7           7           8           8
           8           8           9           9           9           9
          10          10          10          10          11          11
          11          11          12          12          12          12
          13          13          13          13          14          14
          14          14          15          15          15          15
          15          16          16          16          16          16
Primitive exponents                        R   N=         144
  4.56324000E+03  6.82024000E+02  1.54973000E+02  4.44553000E+01  1.30290000E+01
  1.82773000E+00  2.09642000E+01  4.80331000E+00  1.45933000E+00  4.83456000E-01
  1.45585000E-01  6.26000000E-01  4.56324000E+03  6.82024000E+02  1.54973000E+02
  4.44553000E+01  1.30290000E+01  1.82773000E+00  2.09642000E+01  4.80331000E+00
  1.45933000E+00  4.83456000E-01  1.45585000E-01  6.26000000E-01  4.56324000E+03
  6.82024000E+02  1.54973000E+02  4.44553000E+01  1.30290000E+01  1.82773000E+00
  2.09642000E+01  4.80331000E+00  1.45933000E+00  4.83456000E-01  1.45585000E-01
  6.26000000E-01  4.56324000E+03  6.82024000E+02  1.54973000E+02  4.44553000E+01
  1.30290000E+01  1.82773000E+00  2.09642000E+01  4.80331000E+00  1.45933000E+00
  4.83456000E-01  1.45585000E-01  6.26000000E-01  4.56324000E+03  6.82024000E+02
  1.54973000E+02  4.44553000E+01  1.30290000E+01  1.82773000E+00  2.09642000E+01
  4.80331000E+00  1.45933000E+00  4.83456000E-01  1.45585000E-01  6.26000000E-01
  4.56324000E+03  6.82024000E+02  1.54973000E+02  4.44553000E+01  1.30290000E+01
  1.82773000E+00  2.09642000E+01  4.80331000E+00  1.45933000E+00  4.83456000E-01
  1.45585000E-01  6.26000000E-01  3.38650000E+01  5.09479000E+00  1.15879000E+00
  3.25840000E-01  1.02741000E-01  7.50000000E-01  3.38650000E+01  5.09479000E+00
  1.15879000E+00  3.25840000E-01  1.02741000E-01  7.50000000E-01  3.38650000E+01
  5.09479000E+00  1.15879000E+00  3.25840000E-01  1.02741000E-01  7.50000000E-01
  3.38650000E+01  5.09479000E+00  1.15879000E+00  3.25840000E-01  1.02741000E-01
  7.50000000E-01  3.38650000E+01  5.09479000E+00  1.15879000E+00  3.25840000E-01
  1.02741000E-01  7.50000000E-01  3.38650000E+01  5.09479000E+00  1.15879000E+00
  3.25840000E-01  1.02741000E-01  7.50000000E-01  3.38650000E+01  5.09479000E+00
  1.15879000E+00  3.25840000E-01  1.02741000E-01  7.50000000E-01  3.38650000E+01
  5.09479000E+00  1.15879000E+00  3.25840000E-01  1.02741000E-01  7.50000000E-01
  2.85889000E+03  4.28140000E+02  9.75282000E+01  2.79693000E+01  8.21577000E+00
  1.11278000E+00  1.32415000E+01  3.00166000E+00  9.12856000E-01  3.15454000E-01
  9.88563000E-02  4.01000000E-01  6.29348000E+03  9.49044000E+02  2.18776000E+02
  6.36916000E+01  1.88282000E+01  2.72023000E+00  3.06331000E+01  7.02614000E+00
  2.11205000E+00  6.84009000E-01  2.00878000E-01  9.13000000E-01
Contraction coefficients                   R   N=         144
  1.96665025E-03  1.52306019E-02  7.61269097E-02  2.60801033E-01  6.16462078E-01
  2.21006028E-01  1.14660081E-01  9.19999648E-01 -3.03068213E-03  1.00000000E+00
  1.00000000E+00  1.00000000E+00  1.96665025E-03  1.52306019E-02  7.61269097E-02
  2.60801033E-01  6.16462078E-01  2.21006028E-01  1.14660081E-01  9.19999648E-01
 -3.03068213E-03  1.00000000E+00  1.00000000E+00  1.00000000E+00  1.96665025E-03
  1.52306019E-02  7.61269097E-02  2.60801033E-01  6.16462078E-01  2.21006028E-01
  1.14660081E-01  9.19999648E-01 -3.03068213E-03  1.00000000E+00  1.00000000E+00
  1.00000000E+00  1.96665025E-03  1.52306019E-02  7.61269097E-02  2.60801033E-01
  6.16462078E-01  2.21006028E-01  1.14660081E-01  9.19999648E-01 -3.03068213E-03
  1.00000000E+00  1.00000000E+00  1.00000000E+00  1.96665025E-03  1.52306019E-02
  7.61269097E-02  2.60801033E-01  6.16462078E-01  2.21006028E-01  1.14660081E-01
  9.19999648E-01 -3.03068213E-03  1.00000000E+00  1.00000000E+00  1.00000000E+00
  1.96665025E-03  1.52306019E-02  7.61269097E-02  2.60801033E-01  6.16462078E-01
  2.21006028E-01  1.14660081E-01  9.19999648E-01 -3.03068213E-03  1.00000000E+00
  1.00000000E+00  1.00000000E+00  2.54938145E-02  1.90373109E-01  8.52161486E-01
  1.00000000E+00  1.00000000E+00  1.00000000E+00  2.54938145E-02  1.90373109E-01
  8.52161486E-01  1.00000000E+00  1.00000000E+00  1.00000000E+00  2.54938145E-02
  1.90373109E-01  8.52161486E-01  1.00000000E+00  1.00000000E+00  1.00000000E+00
  2.54938145E-02  1.90373109E-01  8.52161486E-01  1.00000000E+00  1.00000000E+00
  1.00000000E+00  2.54938145E-02  1.90373109E-01  8.52161486E-01  1.00000000E+00
  1.00000000E+00  1.00000000E+00  2.54938145E-02  1.90373109E-01  8.52161486E-01
  1.00000000E+00  1.00000000E+00  1.00000000E+00  2.54938145E-02  1.90373109E-01
  8.52161486E-01  1.00000000E+00  1.00000000E+00  1.00000000E+00  2.54938145E-02
  1.90373109E-01  8.52161486E-01  1.00000000E+00  1.00000000E+00  1.00000000E+00
  2.15374907E-03  1.65822928E-02  8.21869644E-02  2.76617880E-01  6.29315727E-01
  1.73769925E-01  1.17442942E-01  9.18001549E-01 -2.65104870E-03  1.00000000E+00
  1.00000000E+00  1.00000000E+00  1.96978815E-03  1.49612859E-02  7.35005308E-02
  2.48936766E-01  6.02459433E-01  2.56201759E-01  1.11906080E-01  9.21666655E-01
 -2.56919183E-03  1.00000000E+00  1.00000000E+00  1.00000000E+00
P(S=P) Contraction coefficients            R   N=         144
  0.00000000E+00  0.00000000E+00  0.00000000E+00  0.00000000E+00  0.00000000E+00
  0.00000000E+00  4.02486927E-02  2.37593957E-01  8.15853851E-01  1.00000000E+00
  1.00000000E+00  0.00000000E+00  0.00000000E+00  0.00000000E+00  0.00000000E+00
  0.00000000E+00  0.00000000E+00  0.00000000E+00  4.02486927E-02  2.37593957E-01
  8.15853851E-01  1.00000000E+00  1.00000000E+00  0.00000000E+00  0.00000000E+00
  0.00000000E+00  0.00000000E+00  0.00000000E+00  0.00000000E+00  0.00000000E+00
  4.02486927E-02  2.37593957E-01  8.15853851E-01  1.00000000E+00  1.00000000E+00
  0.00000000E+00  0.00000000E+00  0.00000000E+00  0.00000000E+00  0.00000000E+00
  0.00000000E+00  0.00000000E+00  4.02486927E-02  2.37593957E-01  8.15853851E-01
  1.00000000E+00  1.00000000E+00  0.00000000E+00  0.00000000E+00  0.00000000E+00
  0.00000000E+00  0.00000000E+00  0.00000000E+00  0.00000000E+00  4.02486927E-02
  2.37593957E-01  8.15853851E-01  1.00000000E+00  1.00000000E+00  0.00000000E+00
  0.00000000E+00  0.00000000E+00  0.00000000E+00  0.00000000E+00  0.00000000E+00
  0.00000000E+00  4.02486927E-02  2.37593957E-01  8.15853851E-01  1.00000000E+00
  1.00000000E+00  0.00000000E+00  0.00000000E+00  0.00000000E+00  0.00000000E+00
  0.00000000E+00  0.00000000E+00  0.00000000E+00  0.00000000E+00  0.00000000E+00
  0.00000000E+00  0.00000000E+00  0.00000000E+00  0.00000000E+00  0.00000000E+00
  0.00000000E+00  0.00000000E+00  0.00000000E+00  0.00000000E+00  0.00000000E+00
  0.00000000E+00  0.00000000E+00  0.00000000E+00  0.00000000E+00  0.00000000E+00
  0.00000000E+00  0.00000000E+00  0.00000000E+00  0.00000000E+00  0.00000000E+00
  0.00000000E+00  0.00000000E+00  0.00000000E+00  0.00000000E+00  0.00000000E+00
  0.00000000E+00  0.00000000E+00  0.00000000E+00  0.00000000E+00  0.00000000E+00
  0.00000000E+00  0.00000000E+00  0.00000000E+00  0.00000000E+00  0.00000000E+00
  0.00000000E+00  0.00000000E+00  0.00000000E+00  0.00000000E+00  0.00000000E+00
  0.00000000E+00  0.00000000E+00  0.00000000E+00  0.00000000E+00  0.00000000E+00
  0.00000000E+00  4.18099989E-02  2.36574994E-01  8.16213978E-01  1.00000000E+00
  1.00000000E+00  0.00000000E+00  0.00000000E+00  0.00000000E+00  0.00000000E+00
  0.00000000E+00  0.00000000E+00  0.00000000E+00  3.83119186E-02  2.37403116E-01
  8.17592398E-01  1.00000000E+00  1.00000000E+00  0.00000000E+00
Coordinates of each shell                  R   N=         216
  1.16486498E-01 -3.53846870E+00  0.00000000E+00  1.16486498E-01 -3.53846870E+00
  0.00000000E+00  1.16486498E-01 -3.53846870E+00  0.00000000E+00  1.16486498E-01
 -3.53846870E+00  0.00000000E+00  1.16486498E-01 -3.53846870E+00  0.00000000E+00
 -2.48651486E+00  2.46178969E+00  0.00000000E+00 -2.48651486E+00  2.46178969E+00
  0.00000000E+00 -2.48651486E+00  2.46178969E+00  0.00000000E+00 -2.48651486E+00
  2.46178969E+00  0.00000000E+00 -2.48651486E+00  2.46178969E+00  0.00000000E+00
  0.00000000E+00  3.37644170E+00  0.00000000E+00  0.00000000E+00  3.37644170E+00
  0.00000000E+00  0.00000000E+00  3.37644170E+00  0.00000000E+00  0.00000000E+00
  3.37644170E+00  0.00000000E+00  0.00000000E+00  3.37644170E+00  0.00000000E+00
  2.42210544E+00  2.37723956E+00  0.00000000E+00  2.42210544E+00  2.37723956E+00
  0.00000000E+00  2.42210544E+00  2.37723956E+00  0.00000000E+00  2.42210544E+00
  2.37723956E+00  0.00000000E+00  2.42210544E+00  2.37723956E+00  0.00000000E+00
  2.58576328E+00 -2.55088838E+00  0.00000000E+00  2.58576328E+00 -2.55088838E+00
  0.00000000E+00  2.58576328E+00 -2.55088838E+00  0.00000000E+00  2.58576328E+00
 -2.55088838E+00  0.00000000E+00  2.58576328E+00 -2.55088838E+00  0.00000000E+00
  3.51300842E+00 -1.00941611E-01  0.00000000E+00  3.51300842E+00 -1.00941611E-01
  0.00000000E+00  3.51300842E+00 -1.00941611E-01  0.00000000E+00  3.51300842E+00
 -1.00941611E-01  0.00000000E+00  3.51300842E+00 -1.00941611E-01  0.00000000E+00
 -3.93157709E+00  3.91502876E+00  0.00000000E+00 -3.93157709E+00  3.91502876E+00
  0.00000000E+00 -3.93157709E+00  3.91502876E+00  0.00000000E+00 -3.93157709E+00
  3.91502876E+00  0.00000000E+00 -5.36987788E+00  1.41368522E-01  0.00000000E+00
 -5.36987788E+00  1.41368522E-01  0.00000000E+00 -5.36987788E+00  1.41368522E-01
  0.00000000E+00 -5.36987788E+00  1.41368522E-01  0.00000000E+00 -4.25472404E+00
 -3.97905457E+00  0.00000000E+00 -4.25472404E+00 -3.97905457E+00  0.00000000E+00
 -4.25472404E+00 -3.97905457E+00  0.00000000E+00 -4.25472404E+00 -3.97905457E+00
  0.00000000E+00  1.21225931E-01 -5.59823050E+00  0.00000000E+00  1.21225931E-01
 -5.59823050E+00  0.00000000E+00  1.21225931E-01 -5.59823050E+00  0.00000000E+00
  1.21225931E-01 -5.59823050E+00  0.00000000E+00  4.07712191E+00 -3.96611562E+00
  0.00000000E+00  4.07712191E+00 -3.96611562E+00  0.00000000E+00  4.07712191E+00
 -3.96611562E+00  0.00000000E+00  4.07712191E+00 -3.96611562E+00  0.00000000E+00
  5.56625822E+00 -1.70188735E-02  0.00000000E+00  5.56625822E+00 -1.70188735E-02
  0.00000000E+00  5.56625822E+00 -1.70188735E-02  0.00000000E+00  5.56625822E+00
 -1.70188735E-02  0.00000000E+00  3.86328617E+00  3.83872162E+00  0.00000000E+00
  3.86328617E+00  3.83872162E+00  0.00000000E+00  3.86328617E+00  3.83872162E+00
  0.00000000E+00  3.86328617E+00  3.83872162E+00  0.00000000E+00 -3.04812824E-03
  5.43046628E+00  0.00000000E+00 -3.04812824E-03  5.43046628E+00  0.00000000E+00
 -3.04812824E-03  5.43046628E+00  0.00000000E+00 -3.04812824E-03  5.43046628E+00
  0.00000000E+00 -2.55068996E+00 -2.49240514E+00  0.00000000E+00 -2.55068996E+00
 -2.49240514E+00  0.00000000E+00 -2.55068996E+00 -2.49240514E+00  0.00000000E+00
 -2.55068996E+00 -2.49240514E+00  0.00000000E+00 -2.55068996E+00 -2.49240514E+00
  0.00000000E+00 -3.46004318E+00  7.79738794E-02  0.00000000E+00 -3.46004318E+00
  7.79738794E-02  0.00000000E+00 -3.46004318E+00  7.79738794E-02  0.00000000E+00
 -3.46004318E+00  7.79738794E-02  0.00000000E+00 -3.46004318E+00  7.79738794E-02
  0.00000000E+00
Num ILSW                                   I              100
ILSW                                       I   N=         100
           1           0           0           0           2           0
           0           0           0           0         402          -1
           5           0           0           0           0           0
           0           0           0           0           0           0
           1           1           0           0           0           0
           0           0      100000           0          -1           0
           0           0           0           0           0           0
           0           0           0           1           0           0
           0 -2000000000           1           0           0           0
           0           0           4          52           0           0
           0           0           5           0           0           0
           0           0           0          16           0           1
           0           0           0           0           0           0
           0           0           0           0           0           0
           0           0           0           0           0           0
           0           0           0           0           0           0
           0           0           0           0
Num RLSW                                   I               52
RLSW                                       R   N=          52
  8.00000000E-01  7.20000000E-01  1.00000000E+00  8.10000000E-01  2.00000000E-01
  0.00000000E+00  0.00000000E+00  1.00000000E+00  0.00000000E+00  0.00000000E+00
  0.00000000E+00  0.00000000E+00  1.00000000E+00  0.00000000E+00  0.00000000E+00
  0.00000000E+00  0.00000000E+00  1.00000000E+00  0.00000000E+00  0.00000000E+00
  0.00000000E+00  0.00000000E+00  1.00000000E+00  0.00000000E+00  0.00000000E+00
  0.00000000E+00  0.00000000E+00  1.00000000E+00  0.00000000E+00  0.00000000E+00
  0.00000000E+00  0.00000000E+00  1.00000000E+00  0.00000000E+00  0.00000000E+00
  0.00000000E+00  0.00000000E+00  0.00000000E+00  1.00000000E+00  1.00000000E+00
  0.00000000E+00  1.00000000E+00  0.00000000E+00  0.00000000E+00  0.00000000E+00
  0.00000000E+00  0.00000000E+00  0.00000000E+00  0.00000000E+00  0.00000000E+00
  0.00000000E+00  0.00000000E+00
MxBond                                     I                3
NBond                                      I   N=          16
           3           3           3           3           3           3
           1           1           1           1           1           1
           1           1           3           3
IBond                                      I   N=          48
           5          10          15           3           7          16
           2           4          14           3           6          13
           1           6          11           4           5          12
           2           0           0          16           0           0
          15           0           0           1           0           0
           5           0           0           6           0           0
           4           0           0           3           0           0
           1           9          16           2           8          15
RBond                                      R   N=          48
  1.50000000E+00  1.00000000E+00  1.00000000E+00  1.50000000E+00  1.00000000E+00
  1.50000000E+00  1.50000000E+00  1.50000000E+00  1.00000000E+00  1.50000000E+00
  1.00000000E+00  1.00000000E+00  1.50000000E+00  1.50000000E+00  1.00000000E+00
  1.00000000E+00  1.50000000E+00  1.00000000E+00  1.00000000E+00  0.00000000E+00
  0.00000000E+00  1.00000000E+00  0.00000000E+00  0.00000000E+00  1.00000000E+00
  0.00000000E+00  0.00000000E+00  1.00000000E+00  0.00000000E+00  0.00000000E+00
  1.00000000E+00  0.00000000E+00  0.00000000E+00  1.00000000E+00  0.00000000E+00
  0.00000000E+00  1.00000000E+00  0.00000000E+00  0.00000000E+00  1.00000000E+00
  0.00000000E+00  0.00000000E+00  1.00000000E+00  1.00000000E+00  1.00000000E+00
  1.50000000E+00  1.00000000E+00  1.00000000E+00
Virial Ratio                               R      2.004414190454649E+00
SCF Energy                                 R     -3.130789358765825E+02
Total Energy                               R     -3.130789358765825E+02
S**2                                       R      2.007678919207276E+00
S**2 after annihilation                    R      2.000032711872717E+00
RMS Density                                R      3.487095775709139E-09
Job Status                                 I                1
Nuclear derivative order                   I                0
External E-field                           R   N=          35
  0.00000000E+00  0.00000000E+00  0.00000000E+00  0.00000000E+00  0.00000000E+00
  0.00000000E+00  0.00000000E+00  0.00000000E+00  0.00000000E+00  0.00000000E+00
  0.00000000E+00  0.00000000E+00  0.00000000E+00  0.00000000E+00  0.00000000E+00
  0.00000000E+00  0.00000000E+00  0.00000000E+00  0.00000000E+00  0.00000000E+00
  0.00000000E+00  0.00000000E+00  0.00000000E+00  0.00000000E+00  0.00000000E+00
  0.00000000E+00  0.00000000E+00  0.00000000E+00  0.00000000E+00  0.00000000E+00
  0.00000000E+00  0.00000000E+00  0.00000000E+00  0.00000000E+00  0.00000000E+00
IOpCl                                      I                1
IROHF                                      I                0
Alpha Orbital Energies                     R   N=         192
 -1.43487097E+01 -1.02247467E+01 -1.01880057E+01 -1.01863739E+01 -1.01820552E+01
 -1.01729105E+01 -1.01598434E+01 -6.72319461E+00 -9.39285518E-01 -8.19151411E-01
 -7.78674639E-01 -7.16624890E-01 -6.68674948E-01 -5.89909211E-01 -5.60665628E-01
 -5.42562238E-01 -4.85662404E-01 -4.63362832E-01 -4.51185654E-01 -4.24635421E-01
 -4.00773971E-01 -3.72227312E-01 -3.64594555E-01 -3.45005022E-01 -3.40419265E-01
 -3.20097970E-01 -3.05256839E-01 -2.07827633E-01 -1.65538106E-01  9.41921185E-03
  1.69109149E-02  3.79738728E-02  4.52769933E-02  6.19753917E-02  9.52445952E-02
  1.06534356E-01  1.27356625E-01  1.31248285E-01  1.39308272E-01  1.63180204E-01
  1.93737495E-01  2.25867556E-01  2.48593613E-01  2.62945382E-01  2.80398532E-01
  2.94710939E-01  2.99402863E-01  3.11778626E-01  3.24207232E-01  3.38756189E-01
  3.58763628E-01  3.89758803E-01  4.01153123E-01  4.07436637E-01  4.23727018E-01
  4.28731529E-01  4.30710795E-01  4.34794413E-01  4.52758676E-01  4.76333831E-01
  5.03608699E-01  5.11140023E-01  5.38762904E-01  5.61257321E-01  5.70017762E-01
  5.92732049E-01  5.94035731E-01  5.94926081E-01  6.07471242E-01  6.18737600E-01
  6.39058520E-01  6.67653919E-01  6.86372305E-01  7.26499699E-01  7.27360435E-01
  7.40668464E-01  7.50113103E-01  7.63071941E-01  7.84321470E-01  7.94895458E-01
  8.03879559E-01  8.25299830E-01  8.70630729E-01  8.89508405E-01  8.98179132E-01
  9.69568884E-01  9.70946460E-01  1.01476031E+00  1.03987924E+00  1.04760145E+00
  1.05526875E+00  1.09421783E+00  1.10433786E+00  1.11621751E+00  1.12998684E+00
  1.17186582E+00  1.20987467E+00  1.28110723E+00  1.36345853E+00  1.38144917E+00
  1.42241066E+00  1.42672134E+00  1.45018486E+00  1.48995473E+00  1.49132288E+00
  1.49626222E+00  1.50385732E+00  1.56451069E+00  1.59880376E+00  1.60431948E+00
  1.64461523E+00  1.67702966E+00  1.67723007E+00  1.70999293E+00  1.71037373E+00
  1.74182644E+00  1.75324287E+00  1.76454366E+00  1.78743898E+00  1.80650280E+00
  1.82583658E+00  1.82910544E+00  1.87487689E+00  1.88014523E+00  1.89263804E+00
  1.90910730E+00  1.92300562E+00  1.97306350E+00  1.98140448E+00  1.98953798E+00
  2.04097838E+00  2.05176185E+00  2.08117367E+00  2.09676683E+00  2.17976376E+00
  2.19716579E+00  2.22963892E+00  2.24744107E+00  2.24810684E+00  2.30828691E+00
  2.36661594E+00  2.41444873E+00  2.43201192E+00  2.47243765E+00  2.50207465E+00
  2.51828731E+00  2.53249660E+00  2.53444040E+00  2.56654363E+00  2.60103948E+00
  2.61913923E+00  2.65273016E+00  2.66658443E+00  2.69216820E+00  2.69942317E+00
  2.70733258E+00  2.72559924E+00  2.73024590E+00  2.76060251E+00  2.76219997E+00
  2.80110527E+00  2.84380961E+00  2.85838446E+00  2.90892983E+00  2.92289563E+00
  2.94918201E+00  3.00395213E+00  3.09774630E+00  3.17605751E+00  3.29680834E+00
  3.34703822E+00  3.36981486E+00  3.39269378E+00  3.46680995E+00  3.60251486E+00
  3.70919130E+00  3.76854779E+00  3.92823933E+00  3.93356313E+00  3.99223303E+00
  4.15875178E+00  4.50017812E+00  4.68013991E+00  5.01658876E+00  1.47417478E+01
  2.35883158E+01  2.37560254E+01  2.39263857E+01  2.39831852E+01  2.41287217E+01
  2.42394190E+01  3.55658749E+01
Beta Orbital Energies                      R   N=         192
 -1.43459129E+01 -1.02183875E+01 -1.01853044E+01 -1.01832256E+01 -1.01774747E+01
 -1.01716701E+01 -1.01534959E+01 -6.72113334E+00 -9.29811225E-01 -8.05989855E-01
 -7.66695364E-01 -7.00580886E-01 -6.53837964E-01 -5.80631661E-01 -5.53588208E-01
 -5.37082233E-01 -4.82258468E-01 -4.56067740E-01 -4.46970620E-01 -4.19596637E-01
 -3.69078662E-01 -3.67532369E-01 -3.60726654E-01 -3.36068846E-01 -3.15729091E-01
 -3.07196758E-01 -2.65694934E-01 -1.24891843E-01 -8.68229702E-02  1.83210531E-02
  4.64546468E-02  4.81828738E-02  6.29763818E-02  7.56060954E-02  9.67014719E-02
  1.08275108E-01  1.30304158E-01  1.43126725E-01  1.65131137E-01  1.67755661E-01
  1.97425583E-01  2.30046336E-01  2.55122328E-01  2.68877620E-01  2.84292535E-01
  3.06972559E-01  3.12028132E-01  3.16139497E-01  3.31004227E-01  3.41926120E-01