Title Card Required                                                     
SP        RB3LYP                                                      6-311G(d,p)         
Number of atoms                            I               16
Info1-9                                    I   N=           9
          23          23           0           0           0         110
           1          18        -502
Full Title                                 C   N=           2
Title Card Required     
Route                                      C   N=           5
#p b3lyp/6-311g(d,p) nosymm pop=nbo density=current         
Charge                                     I                0
Multiplicity                               I                1
Number of electrons                        I               56
Number of alpha electrons                  I               28
Number of beta electrons                   I               28
Number of basis functions                  I              192
Number of independent functions            I              192
Number of point charges in /Mol/           I                0
Number of translation vectors              I                0
Atomic numbers                             I   N=          16
           6           6           6           6           6           6
           1           1           1           1           1           1
           1           1           5           7
Nuclear charges                            R   N=          16
  6.00000000E+00  6.00000000E+00  6.00000000E+00  6.00000000E+00  6.00000000E+00
  6.00000000E+00  1.00000000E+00  1.00000000E+00  1.00000000E+00  1.00000000E+00
  1.00000000E+00  1.00000000E+00  1.00000000E+00  1.00000000E+00  5.00000000E+00
  7.00000000E+00
Current cartesian coordinates              R   N=          48
 -1.64549036E+00 -2.85660261E+00 -7.40817994E-01  3.13504052E+00  8.44344750E-01
 -6.77907122E-01  1.48525859E+00  2.75644334E+00 -7.31429835E-01 -8.98672487E-01
  3.04492326E+00  6.58322000E-01 -3.25617386E+00 -9.03901359E-01 -6.24932429E-01
 -2.90117180E+00  1.49370189E+00  7.34402374E-01  4.90975603E+00  1.04537193E+00
 -1.69409034E+00  4.52233193E+00 -1.97603748E+00  1.53059690E+00  1.26111818E+00
 -5.07712151E+00  1.90024623E+00 -2.30095888E+00 -4.50410553E+00 -1.79263578E+00
 -5.09807668E+00 -1.08079295E+00 -1.53361102E+00 -4.54525809E+00  2.15015117E+00
  1.78333643E+00 -1.07672626E+00  4.84138196E+00  1.64716088E+00  2.06426690E+00
  4.39847173E+00 -1.82469498E+00  8.92959845E-01 -3.18220620E+00  7.18933076E-01
  2.89799895E+00 -1.45139092E+00  6.69027299E-01
Number of symbols in /Mol/                 I                0
Force Field                                I                0
Atom Types                                 C   N=          16
                                                            
                                                            
                                                            
            
Int Atom Types                             I   N=          16
           0           0           0           0           0           0
           0           0           0           0           0           0
           0           0           0           0
MM charges                                 R   N=          16
  0.00000000E+00  0.00000000E+00  0.00000000E+00  0.00000000E+00  0.00000000E+00
  0.00000000E+00  0.00000000E+00  0.00000000E+00  0.00000000E+00  0.00000000E+00
  0.00000000E+00  0.00000000E+00  0.00000000E+00  0.00000000E+00  0.00000000E+00
  0.00000000E+00
Integer atomic weights                     I   N=          16
          12          12          12          12          12          12
           1           1           1           1           1           1
           1           1          11          14
Real atomic weights                        R   N=          16
  1.20000000E+01  1.20000000E+01  1.20000000E+01  1.20000000E+01  1.20000000E+01
  1.20000000E+01  1.00782504E+00  1.00782504E+00  1.00782504E+00  1.00782504E+00
  1.00782504E+00  1.00782504E+00  1.00782504E+00  1.00782504E+00  1.10093053E+01
  1.40030740E+01
Atom fragment info                         I   N=          16
           0           0           0           0           0           0
           0           0           0           0           0           0
           0           0           0           0
Atom residue num                           I   N=          16
           0           0           0           0           0           0
           0           0           0           0           0           0
           0           0           0           0
Nuclear spins                              I   N=          16
           0           0           0           0           0           0
           1           1           1           1           1           1
           1           1           3           2
Nuclear ZEff                               R   N=          16
 -3.60000000E+00 -3.60000000E+00 -3.60000000E+00 -3.60000000E+00 -3.60000000E+00
 -3.60000000E+00 -1.00000000E+00 -1.00000000E+00 -1.00000000E+00 -1.00000000E+00
 -1.00000000E+00 -1.00000000E+00 -1.00000000E+00 -1.00000000E+00 -2.75000000E+00
 -4.55000000E+00
Nuclear ZNuc                               R   N=          16
  6.00000000E+00  6.00000000E+00  6.00000000E+00  6.00000000E+00  6.00000000E+00
  6.00000000E+00  1.00000000E+00  1.00000000E+00  1.00000000E+00  1.00000000E+00
  1.00000000E+00  1.00000000E+00  1.00000000E+00  1.00000000E+00  5.00000000E+00
  7.00000000E+00
Nuclear QMom                               R   N=          16
  0.00000000E+00  0.00000000E+00  0.00000000E+00  0.00000000E+00  0.00000000E+00
  0.00000000E+00  0.00000000E+00  0.00000000E+00  0.00000000E+00  0.00000000E+00
  0.00000000E+00  0.00000000E+00  0.00000000E+00  0.00000000E+00  4.05900000E+00
  2.04400000E+00
Nuclear GFac                               R   N=          16
  0.00000000E+00  0.00000000E+00  0.00000000E+00  0.00000000E+00  0.00000000E+00
  0.00000000E+00  2.79284600E+00  2.79284600E+00  2.79284600E+00  2.79284600E+00
  2.79284600E+00  2.79284600E+00  2.79284600E+00  2.79284600E+00  2.68863700E+00
  4.03761000E-01
MicOpt                                     I   N=          16
          -1          -1          -1          -1          -1          -1
          -1          -1          -1          -1          -1          -1
          -1          -1          -1          -1
Number of residues                         I                0
Number of secondary structures             I                0
Number of contracted shells                I               72
Number of primitive shells                 I              144
Pure/Cartesian d shells                    I                0
Pure/Cartesian f shells                    I                0
Highest angular momentum                   I                2
Largest degree of contraction              I                6
Shell types                                I   N=          72
           0          -1          -1          -1          -2           0
          -1          -1          -1          -2           0          -1
          -1          -1          -2           0          -1          -1
          -1          -2           0          -1          -1          -1
          -2           0          -1          -1          -1          -2
           0           0           0           1           0           0
           0           1           0           0           0           1
           0           0           0           1           0           0
           0           1           0           0           0           1
           0           0           0           1           0           0
           0           1           0          -1          -1          -1
          -2           0          -1          -1          -1          -2
Number of primitives per shell             I   N=          72
           6           3           1           1           1           6
           3           1           1           1           6           3
           1           1           1           6           3           1
           1           1           6           3           1           1
           1           6           3           1           1           1
           3           1           1           1           3           1
           1           1           3           1           1           1
           3           1           1           1           3           1
           1           1           3           1           1           1
           3           1           1           1           3           1
           1           1           6           3           1           1
           1           6           3           1           1           1
Shell to atom map                          I   N=          72
           1           1           1           1           1           2
           2           2           2           2           3           3
           3           3           3           4           4           4
           4           4           5           5           5           5
           5           6           6           6           6           6
           7           7           7           7           8           8
           8           8           9           9           9           9
          10          10          10          10          11          11
          11          11          12          12          12          12
          13          13          13          13          14          14
          14          14          15          15          15          15
          15          16          16          16          16          16
Primitive exponents                        R   N=         144
  4.56324000E+03  6.82024000E+02  1.54973000E+02  4.44553000E+01  1.30290000E+01
  1.82773000E+00  2.09642000E+01  4.80331000E+00  1.45933000E+00  4.83456000E-01
  1.45585000E-01  6.26000000E-01  4.56324000E+03  6.82024000E+02  1.54973000E+02
  4.44553000E+01  1.30290000E+01  1.82773000E+00  2.09642000E+01  4.80331000E+00
  1.45933000E+00  4.83456000E-01  1.45585000E-01  6.26000000E-01  4.56324000E+03
  6.82024000E+02  1.54973000E+02  4.44553000E+01  1.30290000E+01  1.82773000E+00
  2.09642000E+01  4.80331000E+00  1.45933000E+00  4.83456000E-01  1.45585000E-01
  6.26000000E-01  4.56324000E+03  6.82024000E+02  1.54973000E+02  4.44553000E+01
  1.30290000E+01  1.82773000E+00  2.09642000E+01  4.80331000E+00  1.45933000E+00
  4.83456000E-01  1.45585000E-01  6.26000000E-01  4.56324000E+03  6.82024000E+02
  1.54973000E+02  4.44553000E+01  1.30290000E+01  1.82773000E+00  2.09642000E+01
  4.80331000E+00  1.45933000E+00  4.83456000E-01  1.45585000E-01  6.26000000E-01
  4.56324000E+03  6.82024000E+02  1.54973000E+02  4.44553000E+01  1.30290000E+01
  1.82773000E+00  2.09642000E+01  4.80331000E+00  1.45933000E+00  4.83456000E-01
  1.45585000E-01  6.26000000E-01  3.38650000E+01  5.09479000E+00  1.15879000E+00
  3.25840000E-01  1.02741000E-01  7.50000000E-01  3.38650000E+01  5.09479000E+00
  1.15879000E+00  3.25840000E-01  1.02741000E-01  7.50000000E-01  3.38650000E+01
  5.09479000E+00  1.15879000E+00  3.25840000E-01  1.02741000E-01  7.50000000E-01
  3.38650000E+01  5.09479000E+00  1.15879000E+00  3.25840000E-01  1.02741000E-01
  7.50000000E-01  3.38650000E+01  5.09479000E+00  1.15879000E+00  3.25840000E-01
  1.02741000E-01  7.50000000E-01  3.38650000E+01  5.09479000E+00  1.15879000E+00
  3.25840000E-01  1.02741000E-01  7.50000000E-01  3.38650000E+01  5.09479000E+00
  1.15879000E+00  3.25840000E-01  1.02741000E-01  7.50000000E-01  3.38650000E+01
  5.09479000E+00  1.15879000E+00  3.25840000E-01  1.02741000E-01  7.50000000E-01
  2.85889000E+03  4.28140000E+02  9.75282000E+01  2.79693000E+01  8.21577000E+00
  1.11278000E+00  1.32415000E+01  3.00166000E+00  9.12856000E-01  3.15454000E-01
  9.88563000E-02  4.01000000E-01  6.29348000E+03  9.49044000E+02  2.18776000E+02
  6.36916000E+01  1.88282000E+01  2.72023000E+00  3.06331000E+01  7.02614000E+00
  2.11205000E+00  6.84009000E-01  2.00878000E-01  9.13000000E-01
Contraction coefficients                   R   N=         144
  1.96665025E-03  1.52306019E-02  7.61269097E-02  2.60801033E-01  6.16462078E-01
  2.21006028E-01  1.14660081E-01  9.19999648E-01 -3.03068213E-03  1.00000000E+00
  1.00000000E+00  1.00000000E+00  1.96665025E-03  1.52306019E-02  7.61269097E-02
  2.60801033E-01  6.16462078E-01  2.21006028E-01  1.14660081E-01  9.19999648E-01
 -3.03068213E-03  1.00000000E+00  1.00000000E+00  1.00000000E+00  1.96665025E-03
  1.52306019E-02  7.61269097E-02  2.60801033E-01  6.16462078E-01  2.21006028E-01
  1.14660081E-01  9.19999648E-01 -3.03068213E-03  1.00000000E+00  1.00000000E+00
  1.00000000E+00  1.96665025E-03  1.52306019E-02  7.61269097E-02  2.60801033E-01
  6.16462078E-01  2.21006028E-01  1.14660081E-01  9.19999648E-01 -3.03068213E-03
  1.00000000E+00  1.00000000E+00  1.00000000E+00  1.96665025E-03  1.52306019E-02
  7.61269097E-02  2.60801033E-01  6.16462078E-01  2.21006028E-01  1.14660081E-01
  9.19999648E-01 -3.03068213E-03  1.00000000E+00  1.00000000E+00  1.00000000E+00
  1.96665025E-03  1.52306019E-02  7.61269097E-02  2.60801033E-01  6.16462078E-01
  2.21006028E-01  1.14660081E-01  9.19999648E-01 -3.03068213E-03  1.00000000E+00
  1.00000000E+00  1.00000000E+00  2.54938145E-02  1.90373109E-01  8.52161486E-01
  1.00000000E+00  1.00000000E+00  1.00000000E+00  2.54938145E-02  1.90373109E-01
  8.52161486E-01  1.00000000E+00  1.00000000E+00  1.00000000E+00  2.54938145E-02
  1.90373109E-01  8.52161486E-01  1.00000000E+00  1.00000000E+00  1.00000000E+00
  2.54938145E-02  1.90373109E-01  8.52161486E-01  1.00000000E+00  1.00000000E+00
  1.00000000E+00  2.54938145E-02  1.90373109E-01  8.52161486E-01  1.00000000E+00
  1.00000000E+00  1.00000000E+00  2.54938145E-02  1.90373109E-01  8.52161486E-01
  1.00000000E+00  1.00000000E+00  1.00000000E+00  2.54938145E-02  1.90373109E-01
  8.52161486E-01  1.00000000E+00  1.00000000E+00  1.00000000E+00  2.54938145E-02
  1.90373109E-01  8.52161486E-01  1.00000000E+00  1.00000000E+00  1.00000000E+00
  2.15374907E-03  1.65822928E-02  8.21869644E-02  2.76617880E-01  6.29315727E-01
  1.73769925E-01  1.17442942E-01  9.18001549E-01 -2.65104870E-03  1.00000000E+00
  1.00000000E+00  1.00000000E+00  1.96978815E-03  1.49612859E-02  7.35005308E-02
  2.48936766E-01  6.02459433E-01  2.56201759E-01  1.11906080E-01  9.21666655E-01
 -2.56919183E-03  1.00000000E+00  1.00000000E+00  1.00000000E+00
P(S=P) Contraction coefficients            R   N=         144
  0.00000000E+00  0.00000000E+00  0.00000000E+00  0.00000000E+00  0.00000000E+00
  0.00000000E+00  4.02486927E-02  2.37593957E-01  8.15853851E-01  1.00000000E+00
  1.00000000E+00  0.00000000E+00  0.00000000E+00  0.00000000E+00  0.00000000E+00
  0.00000000E+00  0.00000000E+00  0.00000000E+00  4.02486927E-02  2.37593957E-01
  8.15853851E-01  1.00000000E+00  1.00000000E+00  0.00000000E+00  0.00000000E+00
  0.00000000E+00  0.00000000E+00  0.00000000E+00  0.00000000E+00  0.00000000E+00
  4.02486927E-02  2.37593957E-01  8.15853851E-01  1.00000000E+00  1.00000000E+00
  0.00000000E+00  0.00000000E+00  0.00000000E+00  0.00000000E+00  0.00000000E+00
  0.00000000E+00  0.00000000E+00  4.02486927E-02  2.37593957E-01  8.15853851E-01
  1.00000000E+00  1.00000000E+00  0.00000000E+00  0.00000000E+00  0.00000000E+00
  0.00000000E+00  0.00000000E+00  0.00000000E+00  0.00000000E+00  4.02486927E-02
  2.37593957E-01  8.15853851E-01  1.00000000E+00  1.00000000E+00  0.00000000E+00
  0.00000000E+00  0.00000000E+00  0.00000000E+00  0.00000000E+00  0.00000000E+00
  0.00000000E+00  4.02486927E-02  2.37593957E-01  8.15853851E-01  1.00000000E+00
  1.00000000E+00  0.00000000E+00  0.00000000E+00  0.00000000E+00  0.00000000E+00
  0.00000000E+00  0.00000000E+00  0.00000000E+00  0.00000000E+00  0.00000000E+00
  0.00000000E+00  0.00000000E+00  0.00000000E+00  0.00000000E+00  0.00000000E+00
  0.00000000E+00  0.00000000E+00  0.00000000E+00  0.00000000E+00  0.00000000E+00
  0.00000000E+00  0.00000000E+00  0.00000000E+00  0.00000000E+00  0.00000000E+00
  0.00000000E+00  0.00000000E+00  0.00000000E+00  0.00000000E+00  0.00000000E+00
  0.00000000E+00  0.00000000E+00  0.00000000E+00  0.00000000E+00  0.00000000E+00
  0.00000000E+00  0.00000000E+00  0.00000000E+00  0.00000000E+00  0.00000000E+00
  0.00000000E+00  0.00000000E+00  0.00000000E+00  0.00000000E+00  0.00000000E+00
  0.00000000E+00  0.00000000E+00  0.00000000E+00  0.00000000E+00  0.00000000E+00
  0.00000000E+00  0.00000000E+00  0.00000000E+00  0.00000000E+00  0.00000000E+00
  0.00000000E+00  4.18099989E-02  2.36574994E-01  8.16213978E-01  1.00000000E+00
  1.00000000E+00  0.00000000E+00  0.00000000E+00  0.00000000E+00  0.00000000E+00
  0.00000000E+00  0.00000000E+00  0.00000000E+00  3.83119186E-02  2.37403116E-01
  8.17592398E-01  1.00000000E+00  1.00000000E+00  0.00000000E+00
Coordinates of each shell                  R   N=         216
 -1.64549036E+00 -2.85660261E+00 -7.40817994E-01 -1.64549036E+00 -2.85660261E+00
 -7.40817994E-01 -1.64549036E+00 -2.85660261E+00 -7.40817994E-01 -1.64549036E+00
 -2.85660261E+00 -7.40817994E-01 -1.64549036E+00 -2.85660261E+00 -7.40817994E-01
  3.13504052E+00  8.44344750E-01 -6.77907122E-01  3.13504052E+00  8.44344750E-01
 -6.77907122E-01  3.13504052E+00  8.44344750E-01 -6.77907122E-01  3.13504052E+00
  8.44344750E-01 -6.77907122E-01  3.13504052E+00  8.44344750E-01 -6.77907122E-01
  1.48525859E+00  2.75644334E+00 -7.31429835E-01  1.48525859E+00  2.75644334E+00
 -7.31429835E-01  1.48525859E+00  2.75644334E+00 -7.31429835E-01  1.48525859E+00
  2.75644334E+00 -7.31429835E-01  1.48525859E+00  2.75644334E+00 -7.31429835E-01
 -8.98672487E-01  3.04492326E+00  6.58322000E-01 -8.98672487E-01  3.04492326E+00
  6.58322000E-01 -8.98672487E-01  3.04492326E+00  6.58322000E-01 -8.98672487E-01
  3.04492326E+00  6.58322000E-01 -8.98672487E-01  3.04492326E+00  6.58322000E-01
 -3.25617386E+00 -9.03901359E-01 -6.24932429E-01 -3.25617386E+00 -9.03901359E-01
 -6.24932429E-01 -3.25617386E+00 -9.03901359E-01 -6.24932429E-01 -3.25617386E+00
 -9.03901359E-01 -6.24932429E-01 -3.25617386E+00 -9.03901359E-01 -6.24932429E-01
 -2.90117180E+00  1.49370189E+00  7.34402374E-01 -2.90117180E+00  1.49370189E+00
  7.34402374E-01 -2.90117180E+00  1.49370189E+00  7.34402374E-01 -2.90117180E+00
  1.49370189E+00  7.34402374E-01 -2.90117180E+00  1.49370189E+00  7.34402374E-01
  4.90975603E+00  1.04537193E+00 -1.69409034E+00  4.90975603E+00  1.04537193E+00
 -1.69409034E+00  4.90975603E+00  1.04537193E+00 -1.69409034E+00  4.90975603E+00
  1.04537193E+00 -1.69409034E+00  4.52233193E+00 -1.97603748E+00  1.53059690E+00
  4.52233193E+00 -1.97603748E+00  1.53059690E+00  4.52233193E+00 -1.97603748E+00
  1.53059690E+00  4.52233193E+00 -1.97603748E+00  1.53059690E+00  1.26111818E+00
 -5.07712151E+00  1.90024623E+00  1.26111818E+00 -5.07712151E+00  1.90024623E+00
  1.26111818E+00 -5.07712151E+00  1.90024623E+00  1.26111818E+00 -5.07712151E+00
  1.90024623E+00 -2.30095888E+00 -4.50410553E+00 -1.79263578E+00 -2.30095888E+00
 -4.50410553E+00 -1.79263578E+00 -2.30095888E+00 -4.50410553E+00 -1.79263578E+00
 -2.30095888E+00 -4.50410553E+00 -1.79263578E+00 -5.09807668E+00 -1.08079295E+00
 -1.53361102E+00 -5.09807668E+00 -1.08079295E+00 -1.53361102E+00 -5.09807668E+00
 -1.08079295E+00 -1.53361102E+00 -5.09807668E+00 -1.08079295E+00 -1.53361102E+00
 -4.54525809E+00  2.15015117E+00  1.78333643E+00 -4.54525809E+00  2.15015117E+00
  1.78333643E+00 -4.54525809E+00  2.15015117E+00  1.78333643E+00 -4.54525809E+00
  2.15015117E+00  1.78333643E+00 -1.07672626E+00  4.84138196E+00  1.64716088E+00
 -1.07672626E+00  4.84138196E+00  1.64716088E+00 -1.07672626E+00  4.84138196E+00
  1.64716088E+00 -1.07672626E+00  4.84138196E+00  1.64716088E+00  2.06426690E+00
  4.39847173E+00 -1.82469498E+00  2.06426690E+00  4.39847173E+00 -1.82469498E+00
  2.06426690E+00  4.39847173E+00 -1.82469498E+00  2.06426690E+00  4.39847173E+00
 -1.82469498E+00  8.92959845E-01 -3.18220620E+00  7.18933076E-01  8.92959845E-01
 -3.18220620E+00  7.18933076E-01  8.92959845E-01 -3.18220620E+00  7.18933076E-01
  8.92959845E-01 -3.18220620E+00  7.18933076E-01  8.92959845E-01 -3.18220620E+00
  7.18933076E-01  2.89799895E+00 -1.45139092E+00  6.69027299E-01  2.89799895E+00
 -1.45139092E+00  6.69027299E-01  2.89799895E+00 -1.45139092E+00  6.69027299E-01
  2.89799895E+00 -1.45139092E+00  6.69027299E-01  2.89799895E+00 -1.45139092E+00
  6.69027299E-01
Num ILSW                                   I              100
ILSW                                       I   N=         100
           0           0           0           0           2           0
           0           0           0           0         402          -1
           5           0           0           0           0           0
           0           0           0           0           0           0
           1           1           0           0           0           0
           0           0      100000           0          -1           0
           0           0           0           0           0           0
           0           0           0           1           0           0
           0 -2000000000           1           0           0           0
           0           0           4          52           0           0
           0           0           5           0           0           0
           0           0           0          16           0           1
           0           0           0           0           0           0
           0           0           0           0           0           0
           0           0           0           0           0           0
           0           0           0           0           0           0
           0           0           0           0
Num RLSW                                   I               52
RLSW                                       R   N=          52
  8.00000000E-01  7.20000000E-01  1.00000000E+00  8.10000000E-01  2.00000000E-01
  0.00000000E+00  0.00000000E+00  1.00000000E+00  0.00000000E+00  0.00000000E+00
  0.00000000E+00  0.00000000E+00  1.00000000E+00  0.00000000E+00  0.00000000E+00
  0.00000000E+00  0.00000000E+00  1.00000000E+00  0.00000000E+00  0.00000000E+00
  0.00000000E+00  0.00000000E+00  1.00000000E+00  0.00000000E+00  0.00000000E+00
  0.00000000E+00  0.00000000E+00  1.00000000E+00  0.00000000E+00  0.00000000E+00
  0.00000000E+00  0.00000000E+00  1.00000000E+00  0.00000000E+00  0.00000000E+00
  0.00000000E+00  0.00000000E+00  0.00000000E+00  1.00000000E+00  1.00000000E+00
  0.00000000E+00  1.00000000E+00  0.00000000E+00  0.00000000E+00  0.00000000E+00
  0.00000000E+00  0.00000000E+00  0.00000000E+00  0.00000000E+00  0.00000000E+00
  0.00000000E+00  0.00000000E+00
MxBond                                     I                3
NBond                                      I   N=          16
           3           3           3           3           3           3
           1           1           1           1           1           1
           1           1           3           3
IBond                                      I   N=          48
           5          10          15           3           7          16
           2           4          14           3           6          13
           1           6          11           4           5          12
           2           0           0          16           0           0
          15           0           0           1           0           0
           5           0           0           6           0           0
           4           0           0           3           0           0
           1           9          16           2           8          15
RBond                                      R   N=          48
  2.00000000E+00  1.00000000E+00  1.00000000E+00  2.00000000E+00  1.00000000E+00
  1.00000000E+00  2.00000000E+00  1.00000000E+00  1.00000000E+00  1.00000000E+00
  2.00000000E+00  1.00000000E+00  2.00000000E+00  1.00000000E+00  1.00000000E+00
  2.00000000E+00  1.00000000E+00  1.00000000E+00  1.00000000E+00  0.00000000E+00
  0.00000000E+00  1.00000000E+00  0.00000000E+00  0.00000000E+00  1.00000000E+00
  0.00000000E+00  0.00000000E+00  1.00000000E+00  0.00000000E+00  0.00000000E+00
  1.00000000E+00  0.00000000E+00  0.00000000E+00  1.00000000E+00  0.00000000E+00
  0.00000000E+00  1.00000000E+00  0.00000000E+00  0.00000000E+00  1.00000000E+00
  0.00000000E+00  0.00000000E+00  1.00000000E+00  1.00000000E+00  1.00000000E+00
  1.00000000E+00  1.00000000E+00  1.00000000E+00
Virial Ratio                               R      2.004457904914819E+00
SCF Energy                                 R     -3.131216369398796E+02
Total Energy                               R     -3.131216369398796E+02
RMS Density                                R      3.422833974419880E-09
Job Status                                 I                1
Nuclear derivative order                   I                0
External E-field                           R   N=          35
  0.00000000E+00  0.00000000E+00  0.00000000E+00  0.00000000E+00  0.00000000E+00
  0.00000000E+00  0.00000000E+00  0.00000000E+00  0.00000000E+00  0.00000000E+00
  0.00000000E+00  0.00000000E+00  0.00000000E+00  0.00000000E+00  0.00000000E+00
  0.00000000E+00  0.00000000E+00  0.00000000E+00  0.00000000E+00  0.00000000E+00
  0.00000000E+00  0.00000000E+00  0.00000000E+00  0.00000000E+00  0.00000000E+00
  0.00000000E+00  0.00000000E+00  0.00000000E+00  0.00000000E+00  0.00000000E+00
  0.00000000E+00  0.00000000E+00  0.00000000E+00  0.00000000E+00  0.00000000E+00
IOpCl                                      I                0
IROHF                                      I                0
Alpha Orbital Energies                     R   N=         192
 -1.43244538E+01 -1.02089175E+01 -1.01771113E+01 -1.01747639E+01 -1.01742984E+01
 -1.01741227E+01 -1.01469103E+01 -6.73112658E+00 -9.13520909E-01 -8.12026931E-01
 -7.66910811E-01 -7.14953623E-01 -6.36919897E-01 -5.73160282E-01 -5.48326197E-01
 -5.25182971E-01 -4.78839353E-01 -4.59371065E-01 -4.52314865E-01 -4.31186212E-01
 -4.19669946E-01 -3.65007298E-01 -3.52688349E-01 -3.31168367E-01 -3.13402442E-01
 -2.94304626E-01 -2.65416216E-01 -2.19115977E-01 -5.04090269E-02  1.24388799E-02
  2.67934102E-02  3.68332738E-02  6.40877938E-02  7.77661662E-02  8.17680005E-02
  8.99839329E-02  1.13082799E-01  1.22644798E-01  1.32347213E-01  1.41593043E-01
  1.98135330E-01  2.20364401E-01  2.26153183E-01  2.78800687E-01  2.89688659E-01
  3.14499832E-01  3.17832465E-01  3.39053049E-01  3.44178792E-01  3.54607895E-01
  3.74052727E-01  3.97115942E-01  4.03806740E-01  4.16314401E-01  4.26054493E-01
  4.29619698E-01  4.56650039E-01  4.67319000E-01  4.81483463E-01  4.88906458E-01
  4.96137494E-01  5.09865635E-01  5.22896324E-01  5.28852406E-01  5.54906443E-01
  5.67751841E-01  5.89693059E-01  5.99222044E-01  6.06784926E-01  6.11626485E-01
  6.29772779E-01  6.36004764E-01  6.46318438E-01  6.53546577E-01  6.88755318E-01
  7.17990473E-01  7.32827957E-01  7.59182804E-01  7.89974476E-01  7.96131534E-01
  7.98513309E-01  8.15676549E-01  8.38990725E-01  8.78489019E-01  8.93613434E-01
  9.10473412E-01  9.27369565E-01  1.01742850E+00  1.06714486E+00  1.07417292E+00
  1.10062137E+00  1.11740190E+00  1.18907901E+00  1.20146579E+00  1.22816060E+00
  1.25333550E+00  1.27136269E+00  1.29558579E+00  1.34978744E+00  1.38796013E+00
  1.42275977E+00  1.43388305E+00  1.45586984E+00  1.47958401E+00  1.50316548E+00
  1.51315898E+00  1.51785968E+00  1.56338201E+00  1.59459857E+00  1.61640920E+00
  1.66015992E+00  1.66930416E+00  1.67436796E+00  1.69758917E+00  1.71414778E+00
  1.74736768E+00  1.75883667E+00  1.78129844E+00  1.79641294E+00  1.80631715E+00
  1.81193683E+00  1.85245404E+00  1.87019195E+00  1.88734550E+00  1.89663522E+00
  1.90100544E+00  1.93569916E+00  1.94796987E+00  1.99170291E+00  2.02171166E+00
  2.08201301E+00  2.10125466E+00  2.11077233E+00  2.14610048E+00  2.17092783E+00
  2.22627260E+00  2.26217935E+00  2.27782799E+00  2.30308897E+00  2.31166319E+00
  2.35154297E+00  2.38953306E+00  2.41773211E+00  2.44902071E+00  2.48585152E+00
  2.50779937E+00  2.53501156E+00  2.55140445E+00  2.57537029E+00  2.59415890E+00
  2.61438747E+00  2.62760168E+00  2.65752719E+00  2.65886564E+00  2.66218244E+00
  2.69627862E+00  2.72383104E+00  2.74193661E+00  2.76007294E+00  2.77821446E+00
  2.81604643E+00  2.85744569E+00  2.90437821E+00  2.92992803E+00  2.93279846E+00
  2.97473598E+00  3.00923957E+00  3.09135480E+00  3.11447547E+00  3.28625793E+00
  3.34576066E+00  3.41566552E+00  3.49355926E+00  3.53006893E+00  3.59661353E+00
  3.65497273E+00  3.83256471E+00  3.90148482E+00  3.94419544E+00  3.99070925E+00
  4.08263432E+00  4.36109907E+00  4.66981041E+00  4.92240988E+00  1.47131211E+01
  2.35810369E+01  2.37225381E+01  2.37843860E+01  2.42064961E+01  2.42368791E+01
  2.43024725E+01  3.55701620E+01
Alpha MO coefficients                      R   N=       36864
 -2.49083636E-06  1.93327492E-05  1.06219934E-04  3.86520951E-05  5.82606580E-05
  5.96930835E-05 -5.34953651E-04 -1.01181930E-04 -2.90326053E-04 -2.14694165E-03
 -6.99563334E-04 -1.23177937E-03 -1.01779361E-04  8.05263811E-05 -7.97412678E-05
 -1.74283498E-04 -2.62757675E-04 -1.81143030E-04  1.22524099E-05 -1.27542575E-05
  2.13821788E-05 -3.64927819E-04  2.01656619E-04  4.94215145E-04 -3.12716300E-04
  1.02385740E-03 -4.44729035E-04  2.98610730E-03 -1.72311551E-03 -4.62799037E-03
  3.38362802E-03 -1.89861474E-04 -1.48915520E-04  5.59603255E-04  6.00947289E-04
 -4.23466394E-04 -7.36243210E-06  3.42297749E-05  6.78360187E-05 -1.32205340E-04
  1.47160518E-05 -3.30225583E-05 -5.46600593E-04  8.98119025E-04 -9.97632067E-05
 -3.00435164E-03  4.39275177E-03  6.19584188E-04 -2.75631248E-03  1.42243715E-04
 -2.45869770E-04  2.29014534E-05  2.38803803E-04  3.09840710E-04 -4.98942711E-06
  3.07654278E-05  4.89980708E-05 -5.86815529E-06 -1.89356103E-05 -2.70324299E-04