Title Card Required                                                     
SP        RB3LYP                                                      6-311G(d,p)         
Number of atoms                            I               16
Info1-9                                    I   N=           9
          23          23           0           0           0         110
           1          18        -502
Full Title                                 C   N=           2
Title Card Required     
Route                                      C   N=           5
#p b3lyp/6-311g(d,p) nosymm pop=nbo density=current         
Charge                                     I                0
Multiplicity                               I                1
Number of electrons                        I               56
Number of alpha electrons                  I               28
Number of beta electrons                   I               28
Number of basis functions                  I              192
Number of independent functions            I              192
Number of point charges in /Mol/           I                0
Number of translation vectors              I                0
Atomic numbers                             I   N=          16
           6           6           1           1           1           1
           1           1           6           1           6           1
           6           6           5           7
Nuclear charges                            R   N=          16
  6.00000000E+00  6.00000000E+00  1.00000000E+00  1.00000000E+00  1.00000000E+00
  1.00000000E+00  1.00000000E+00  1.00000000E+00  6.00000000E+00  1.00000000E+00
  6.00000000E+00  1.00000000E+00  6.00000000E+00  6.00000000E+00  5.00000000E+00
  7.00000000E+00
Current cartesian coordinates              R   N=          48
  3.19221041E+00  4.73512454E-01 -8.05869926E-01  1.61916837E+00  2.55602466E+00
 -6.94999695E-01 -5.07257294E+00 -1.14510411E+00 -2.12495734E+00  4.15218750E+00
 -2.26038079E+00  1.80013421E+00  5.03600107E+00  5.81695496E-01 -1.68549964E+00
  2.49184767E+00  4.22738726E+00 -1.52541716E+00 -8.21883466E-01  4.90288498E+00
  1.22578408E+00 -4.87277975E+00  2.50186133E+00  1.93401564E+00 -1.48385075E+00
 -2.42367958E+00 -9.14538627E-01 -1.05496795E+00 -3.74302589E+00 -2.44352548E+00
  3.46273415E-01 -2.30038629E+00  1.13633956E+00 -8.20556878E-02 -3.05500117E+00
  2.99491733E+00 -3.50832946E+00 -8.93299995E-01 -8.11463516E-01 -6.86567737E-01
  2.93760194E+00  5.94063753E-01 -3.16052159E+00  1.49321056E+00  8.44633878E-01
  2.73620060E+00 -1.65357272E+00  6.54313891E-01
Number of symbols in /Mol/                 I                0
Force Field                                I                0
Atom Types                                 C   N=          16
                                                            
                                                            
                                                            
            
Int Atom Types                             I   N=          16
           0           0           0           0           0           0
           0           0           0           0           0           0
           0           0           0           0
MM charges                                 R   N=          16
  0.00000000E+00  0.00000000E+00  0.00000000E+00  0.00000000E+00  0.00000000E+00
  0.00000000E+00  0.00000000E+00  0.00000000E+00  0.00000000E+00  0.00000000E+00
  0.00000000E+00  0.00000000E+00  0.00000000E+00  0.00000000E+00  0.00000000E+00
  0.00000000E+00
Integer atomic weights                     I   N=          16
          12          12           1           1           1           1
           1           1          12           1          12           1
          12          12          11          14
Real atomic weights                        R   N=          16
  1.20000000E+01  1.20000000E+01  1.00782504E+00  1.00782504E+00  1.00782504E+00
  1.00782504E+00  1.00782504E+00  1.00782504E+00  1.20000000E+01  1.00782504E+00
  1.20000000E+01  1.00782504E+00  1.20000000E+01  1.20000000E+01  1.10093053E+01
  1.40030740E+01
Atom fragment info                         I   N=          16
           0           0           0           0           0           0
           0           0           0           0           0           0
           0           0           0           0
Atom residue num                           I   N=          16
           0           0           0           0           0           0
           0           0           0           0           0           0
           0           0           0           0
Nuclear spins                              I   N=          16
           0           0           1           1           1           1
           1           1           0           1           0           1
           0           0           3           2
Nuclear ZEff                               R   N=          16
 -3.60000000E+00 -3.60000000E+00 -1.00000000E+00 -1.00000000E+00 -1.00000000E+00
 -1.00000000E+00 -1.00000000E+00 -1.00000000E+00 -3.60000000E+00 -1.00000000E+00
 -3.60000000E+00 -1.00000000E+00 -3.60000000E+00 -3.60000000E+00 -2.75000000E+00
 -4.55000000E+00
Nuclear ZNuc                               R   N=          16
  6.00000000E+00  6.00000000E+00  1.00000000E+00  1.00000000E+00  1.00000000E+00
  1.00000000E+00  1.00000000E+00  1.00000000E+00  6.00000000E+00  1.00000000E+00
  6.00000000E+00  1.00000000E+00  6.00000000E+00  6.00000000E+00  5.00000000E+00
  7.00000000E+00
Nuclear QMom                               R   N=          16
  0.00000000E+00  0.00000000E+00  0.00000000E+00  0.00000000E+00  0.00000000E+00
  0.00000000E+00  0.00000000E+00  0.00000000E+00  0.00000000E+00  0.00000000E+00
  0.00000000E+00  0.00000000E+00  0.00000000E+00  0.00000000E+00  4.05900000E+00
  2.04400000E+00
Nuclear GFac                               R   N=          16
  0.00000000E+00  0.00000000E+00  2.79284600E+00  2.79284600E+00  2.79284600E+00
  2.79284600E+00  2.79284600E+00  2.79284600E+00  0.00000000E+00  2.79284600E+00
  0.00000000E+00  2.79284600E+00  0.00000000E+00  0.00000000E+00  2.68863700E+00
  4.03761000E-01
MicOpt                                     I   N=          16
          -1          -1          -1          -1          -1          -1
          -1          -1          -1          -1          -1          -1
          -1          -1          -1          -1
Number of residues                         I                0
Number of secondary structures             I                0
Number of contracted shells                I               72
Number of primitive shells                 I              144
Pure/Cartesian d shells                    I                0
Pure/Cartesian f shells                    I                0
Highest angular momentum                   I                2
Largest degree of contraction              I                6
Shell types                                I   N=          72
           0          -1          -1          -1          -2           0
          -1          -1          -1          -2           0           0
           0           1           0           0           0           1
           0           0           0           1           0           0
           0           1           0           0           0           1
           0           0           0           1           0          -1
          -1          -1          -2           0           0           0
           1           0          -1          -1          -1          -2
           0           0           0           1           0          -1
          -1          -1          -2           0          -1          -1
          -1          -2           0          -1          -1          -1
          -2           0          -1          -1          -1          -2
Number of primitives per shell             I   N=          72
           6           3           1           1           1           6
           3           1           1           1           3           1
           1           1           3           1           1           1
           3           1           1           1           3           1
           1           1           3           1           1           1
           3           1           1           1           6           3
           1           1           1           3           1           1
           1           6           3           1           1           1
           3           1           1           1           6           3
           1           1           1           6           3           1
           1           1           6           3           1           1
           1           6           3           1           1           1
Shell to atom map                          I   N=          72
           1           1           1           1           1           2
           2           2           2           2           3           3
           3           3           4           4           4           4
           5           5           5           5           6           6
           6           6           7           7           7           7
           8           8           8           8           9           9
           9           9           9          10          10          10
          10          11          11          11          11          11
          12          12          12          12          13          13
          13          13          13          14          14          14
          14          14          15          15          15          15
          15          16          16          16          16          16
Primitive exponents                        R   N=         144
  4.56324000E+03  6.82024000E+02  1.54973000E+02  4.44553000E+01  1.30290000E+01
  1.82773000E+00  2.09642000E+01  4.80331000E+00  1.45933000E+00  4.83456000E-01
  1.45585000E-01  6.26000000E-01  4.56324000E+03  6.82024000E+02  1.54973000E+02
  4.44553000E+01  1.30290000E+01  1.82773000E+00  2.09642000E+01  4.80331000E+00
  1.45933000E+00  4.83456000E-01  1.45585000E-01  6.26000000E-01  3.38650000E+01
  5.09479000E+00  1.15879000E+00  3.25840000E-01  1.02741000E-01  7.50000000E-01
  3.38650000E+01  5.09479000E+00  1.15879000E+00  3.25840000E-01  1.02741000E-01
  7.50000000E-01  3.38650000E+01  5.09479000E+00  1.15879000E+00  3.25840000E-01
  1.02741000E-01  7.50000000E-01  3.38650000E+01  5.09479000E+00  1.15879000E+00
  3.25840000E-01  1.02741000E-01  7.50000000E-01  3.38650000E+01  5.09479000E+00
  1.15879000E+00  3.25840000E-01  1.02741000E-01  7.50000000E-01  3.38650000E+01
  5.09479000E+00  1.15879000E+00  3.25840000E-01  1.02741000E-01  7.50000000E-01
  4.56324000E+03  6.82024000E+02  1.54973000E+02  4.44553000E+01  1.30290000E+01
  1.82773000E+00  2.09642000E+01  4.80331000E+00  1.45933000E+00  4.83456000E-01
  1.45585000E-01  6.26000000E-01  3.38650000E+01  5.09479000E+00  1.15879000E+00
  3.25840000E-01  1.02741000E-01  7.50000000E-01  4.56324000E+03  6.82024000E+02
  1.54973000E+02  4.44553000E+01  1.30290000E+01  1.82773000E+00  2.09642000E+01
  4.80331000E+00  1.45933000E+00  4.83456000E-01  1.45585000E-01  6.26000000E-01
  3.38650000E+01  5.09479000E+00  1.15879000E+00  3.25840000E-01  1.02741000E-01
  7.50000000E-01  4.56324000E+03  6.82024000E+02  1.54973000E+02  4.44553000E+01
  1.30290000E+01  1.82773000E+00  2.09642000E+01  4.80331000E+00  1.45933000E+00
  4.83456000E-01  1.45585000E-01  6.26000000E-01  4.56324000E+03  6.82024000E+02
  1.54973000E+02  4.44553000E+01  1.30290000E+01  1.82773000E+00  2.09642000E+01
  4.80331000E+00  1.45933000E+00  4.83456000E-01  1.45585000E-01  6.26000000E-01
  2.85889000E+03  4.28140000E+02  9.75282000E+01  2.79693000E+01  8.21577000E+00
  1.11278000E+00  1.32415000E+01  3.00166000E+00  9.12856000E-01  3.15454000E-01
  9.88563000E-02  4.01000000E-01  6.29348000E+03  9.49044000E+02  2.18776000E+02
  6.36916000E+01  1.88282000E+01  2.72023000E+00  3.06331000E+01  7.02614000E+00
  2.11205000E+00  6.84009000E-01  2.00878000E-01  9.13000000E-01
Contraction coefficients                   R   N=         144
  1.96665025E-03  1.52306019E-02  7.61269097E-02  2.60801033E-01  6.16462078E-01
  2.21006028E-01  1.14660081E-01  9.19999648E-01 -3.03068213E-03  1.00000000E+00
  1.00000000E+00  1.00000000E+00  1.96665025E-03  1.52306019E-02  7.61269097E-02
  2.60801033E-01  6.16462078E-01  2.21006028E-01  1.14660081E-01  9.19999648E-01
 -3.03068213E-03  1.00000000E+00  1.00000000E+00  1.00000000E+00  2.54938145E-02
  1.90373109E-01  8.52161486E-01  1.00000000E+00  1.00000000E+00  1.00000000E+00
  2.54938145E-02  1.90373109E-01  8.52161486E-01  1.00000000E+00  1.00000000E+00
  1.00000000E+00  2.54938145E-02  1.90373109E-01  8.52161486E-01  1.00000000E+00
  1.00000000E+00  1.00000000E+00  2.54938145E-02  1.90373109E-01  8.52161486E-01
  1.00000000E+00  1.00000000E+00  1.00000000E+00  2.54938145E-02  1.90373109E-01
  8.52161486E-01  1.00000000E+00  1.00000000E+00  1.00000000E+00  2.54938145E-02
  1.90373109E-01  8.52161486E-01  1.00000000E+00  1.00000000E+00  1.00000000E+00
  1.96665025E-03  1.52306019E-02  7.61269097E-02  2.60801033E-01  6.16462078E-01
  2.21006028E-01  1.14660081E-01  9.19999648E-01 -3.03068213E-03  1.00000000E+00
  1.00000000E+00  1.00000000E+00  2.54938145E-02  1.90373109E-01  8.52161486E-01
  1.00000000E+00  1.00000000E+00  1.00000000E+00  1.96665025E-03  1.52306019E-02
  7.61269097E-02  2.60801033E-01  6.16462078E-01  2.21006028E-01  1.14660081E-01
  9.19999648E-01 -3.03068213E-03  1.00000000E+00  1.00000000E+00  1.00000000E+00
  2.54938145E-02  1.90373109E-01  8.52161486E-01  1.00000000E+00  1.00000000E+00
  1.00000000E+00  1.96665025E-03  1.52306019E-02  7.61269097E-02  2.60801033E-01
  6.16462078E-01  2.21006028E-01  1.14660081E-01  9.19999648E-01 -3.03068213E-03
  1.00000000E+00  1.00000000E+00  1.00000000E+00  1.96665025E-03  1.52306019E-02
  7.61269097E-02  2.60801033E-01  6.16462078E-01  2.21006028E-01  1.14660081E-01
  9.19999648E-01 -3.03068213E-03  1.00000000E+00  1.00000000E+00  1.00000000E+00
  2.15374907E-03  1.65822928E-02  8.21869644E-02  2.76617880E-01  6.29315727E-01
  1.73769925E-01  1.17442942E-01  9.18001549E-01 -2.65104870E-03  1.00000000E+00
  1.00000000E+00  1.00000000E+00  1.96978815E-03  1.49612859E-02  7.35005308E-02
  2.48936766E-01  6.02459433E-01  2.56201759E-01  1.11906080E-01  9.21666655E-01
 -2.56919183E-03  1.00000000E+00  1.00000000E+00  1.00000000E+00
P(S=P) Contraction coefficients            R   N=         144
  0.00000000E+00  0.00000000E+00  0.00000000E+00  0.00000000E+00  0.00000000E+00
  0.00000000E+00  4.02486927E-02  2.37593957E-01  8.15853851E-01  1.00000000E+00
  1.00000000E+00  0.00000000E+00  0.00000000E+00  0.00000000E+00  0.00000000E+00
  0.00000000E+00  0.00000000E+00  0.00000000E+00  4.02486927E-02  2.37593957E-01
  8.15853851E-01  1.00000000E+00  1.00000000E+00  0.00000000E+00  0.00000000E+00
  0.00000000E+00  0.00000000E+00  0.00000000E+00  0.00000000E+00  0.00000000E+00
  0.00000000E+00  0.00000000E+00  0.00000000E+00  0.00000000E+00  0.00000000E+00
  0.00000000E+00  0.00000000E+00  0.00000000E+00  0.00000000E+00  0.00000000E+00
  0.00000000E+00  0.00000000E+00  0.00000000E+00  0.00000000E+00  0.00000000E+00
  0.00000000E+00  0.00000000E+00  0.00000000E+00  0.00000000E+00  0.00000000E+00
  0.00000000E+00  0.00000000E+00  0.00000000E+00  0.00000000E+00  0.00000000E+00
  0.00000000E+00  0.00000000E+00  0.00000000E+00  0.00000000E+00  0.00000000E+00
  0.00000000E+00  0.00000000E+00  0.00000000E+00  0.00000000E+00  0.00000000E+00
  0.00000000E+00  4.02486927E-02  2.37593957E-01  8.15853851E-01  1.00000000E+00
  1.00000000E+00  0.00000000E+00  0.00000000E+00  0.00000000E+00  0.00000000E+00
  0.00000000E+00  0.00000000E+00  0.00000000E+00  0.00000000E+00  0.00000000E+00
  0.00000000E+00  0.00000000E+00  0.00000000E+00  0.00000000E+00  4.02486927E-02
  2.37593957E-01  8.15853851E-01  1.00000000E+00  1.00000000E+00  0.00000000E+00
  0.00000000E+00  0.00000000E+00  0.00000000E+00  0.00000000E+00  0.00000000E+00
  0.00000000E+00  0.00000000E+00  0.00000000E+00  0.00000000E+00  0.00000000E+00
  0.00000000E+00  0.00000000E+00  4.02486927E-02  2.37593957E-01  8.15853851E-01
  1.00000000E+00  1.00000000E+00  0.00000000E+00  0.00000000E+00  0.00000000E+00
  0.00000000E+00  0.00000000E+00  0.00000000E+00  0.00000000E+00  4.02486927E-02
  2.37593957E-01  8.15853851E-01  1.00000000E+00  1.00000000E+00  0.00000000E+00
  0.00000000E+00  0.00000000E+00  0.00000000E+00  0.00000000E+00  0.00000000E+00
  0.00000000E+00  4.18099989E-02  2.36574994E-01  8.16213978E-01  1.00000000E+00
  1.00000000E+00  0.00000000E+00  0.00000000E+00  0.00000000E+00  0.00000000E+00
  0.00000000E+00  0.00000000E+00  0.00000000E+00  3.83119186E-02  2.37403116E-01
  8.17592398E-01  1.00000000E+00  1.00000000E+00  0.00000000E+00
Coordinates of each shell                  R   N=         216
  3.19221041E+00  4.73512454E-01 -8.05869926E-01  3.19221041E+00  4.73512454E-01
 -8.05869926E-01  3.19221041E+00  4.73512454E-01 -8.05869926E-01  3.19221041E+00
  4.73512454E-01 -8.05869926E-01  3.19221041E+00  4.73512454E-01 -8.05869926E-01
  1.61916837E+00  2.55602466E+00 -6.94999695E-01  1.61916837E+00  2.55602466E+00
 -6.94999695E-01  1.61916837E+00  2.55602466E+00 -6.94999695E-01  1.61916837E+00
  2.55602466E+00 -6.94999695E-01  1.61916837E+00  2.55602466E+00 -6.94999695E-01
 -5.07257294E+00 -1.14510411E+00 -2.12495734E+00 -5.07257294E+00 -1.14510411E+00
 -2.12495734E+00 -5.07257294E+00 -1.14510411E+00 -2.12495734E+00 -5.07257294E+00
 -1.14510411E+00 -2.12495734E+00  4.15218750E+00 -2.26038079E+00  1.80013421E+00
  4.15218750E+00 -2.26038079E+00  1.80013421E+00  4.15218750E+00 -2.26038079E+00
  1.80013421E+00  4.15218750E+00 -2.26038079E+00  1.80013421E+00  5.03600107E+00
  5.81695496E-01 -1.68549964E+00  5.03600107E+00  5.81695496E-01 -1.68549964E+00
  5.03600107E+00  5.81695496E-01 -1.68549964E+00  5.03600107E+00  5.81695496E-01
 -1.68549964E+00  2.49184767E+00  4.22738726E+00 -1.52541716E+00  2.49184767E+00
  4.22738726E+00 -1.52541716E+00  2.49184767E+00  4.22738726E+00 -1.52541716E+00
  2.49184767E+00  4.22738726E+00 -1.52541716E+00 -8.21883466E-01  4.90288498E+00
  1.22578408E+00 -8.21883466E-01  4.90288498E+00  1.22578408E+00 -8.21883466E-01
  4.90288498E+00  1.22578408E+00 -8.21883466E-01  4.90288498E+00  1.22578408E+00
 -4.87277975E+00  2.50186133E+00  1.93401564E+00 -4.87277975E+00  2.50186133E+00
  1.93401564E+00 -4.87277975E+00  2.50186133E+00  1.93401564E+00 -4.87277975E+00
  2.50186133E+00  1.93401564E+00 -1.48385075E+00 -2.42367958E+00 -9.14538627E-01
 -1.48385075E+00 -2.42367958E+00 -9.14538627E-01 -1.48385075E+00 -2.42367958E+00
 -9.14538627E-01 -1.48385075E+00 -2.42367958E+00 -9.14538627E-01 -1.48385075E+00
 -2.42367958E+00 -9.14538627E-01 -1.05496795E+00 -3.74302589E+00 -2.44352548E+00
 -1.05496795E+00 -3.74302589E+00 -2.44352548E+00 -1.05496795E+00 -3.74302589E+00
 -2.44352548E+00 -1.05496795E+00 -3.74302589E+00 -2.44352548E+00  3.46273415E-01
 -2.30038629E+00  1.13633956E+00  3.46273415E-01 -2.30038629E+00  1.13633956E+00
  3.46273415E-01 -2.30038629E+00  1.13633956E+00  3.46273415E-01 -2.30038629E+00
  1.13633956E+00  3.46273415E-01 -2.30038629E+00  1.13633956E+00 -8.20556878E-02
 -3.05500117E+00  2.99491733E+00 -8.20556878E-02 -3.05500117E+00  2.99491733E+00
 -8.20556878E-02 -3.05500117E+00  2.99491733E+00 -8.20556878E-02 -3.05500117E+00
  2.99491733E+00 -3.50832946E+00 -8.93299995E-01 -8.11463516E-01 -3.50832946E+00
 -8.93299995E-01 -8.11463516E-01 -3.50832946E+00 -8.93299995E-01 -8.11463516E-01
 -3.50832946E+00 -8.93299995E-01 -8.11463516E-01 -3.50832946E+00 -8.93299995E-01
 -8.11463516E-01 -6.86567737E-01  2.93760194E+00  5.94063753E-01 -6.86567737E-01
  2.93760194E+00  5.94063753E-01 -6.86567737E-01  2.93760194E+00  5.94063753E-01
 -6.86567737E-01  2.93760194E+00  5.94063753E-01 -6.86567737E-01  2.93760194E+00
  5.94063753E-01 -3.16052159E+00  1.49321056E+00  8.44633878E-01 -3.16052159E+00
  1.49321056E+00  8.44633878E-01 -3.16052159E+00  1.49321056E+00  8.44633878E-01
 -3.16052159E+00  1.49321056E+00  8.44633878E-01 -3.16052159E+00  1.49321056E+00
  8.44633878E-01  2.73620060E+00 -1.65357272E+00  6.54313891E-01  2.73620060E+00
 -1.65357272E+00  6.54313891E-01  2.73620060E+00 -1.65357272E+00  6.54313891E-01
  2.73620060E+00 -1.65357272E+00  6.54313891E-01  2.73620060E+00 -1.65357272E+00
  6.54313891E-01
Num ILSW                                   I              100
ILSW                                       I   N=         100
           0           0           0           0           2           0
           0           0           0           0         402          -1
           5           0           0           0           0           0
           0           0           0           0           0           0
           1           1           0           0           0           0
           0           0      100000           0          -1           0
           0           0           0           0           0           0
           0           0           0           1           0           0
           0 -2000000000           1           0           0           0
           0           0           4          52           0           0
           0           0           5           0           0           0
           0           0           0          16           0           1
           0           0           0           0           0           0
           0           0           0           0           0           0
           0           0           0           0           0           0
           0           0           0           0           0           0
           0           0           0           0
Num RLSW                                   I               52
RLSW                                       R   N=          52
  8.00000000E-01  7.20000000E-01  1.00000000E+00  8.10000000E-01  2.00000000E-01
  0.00000000E+00  0.00000000E+00  1.00000000E+00  0.00000000E+00  0.00000000E+00
  0.00000000E+00  0.00000000E+00  1.00000000E+00  0.00000000E+00  0.00000000E+00
  0.00000000E+00  0.00000000E+00  1.00000000E+00  0.00000000E+00  0.00000000E+00
  0.00000000E+00  0.00000000E+00  1.00000000E+00  0.00000000E+00  0.00000000E+00
  0.00000000E+00  0.00000000E+00  1.00000000E+00  0.00000000E+00  0.00000000E+00
  0.00000000E+00  0.00000000E+00  1.00000000E+00  0.00000000E+00  0.00000000E+00
  0.00000000E+00  0.00000000E+00  0.00000000E+00  1.00000000E+00  1.00000000E+00
  0.00000000E+00  1.00000000E+00  0.00000000E+00  0.00000000E+00  0.00000000E+00
  0.00000000E+00  0.00000000E+00  0.00000000E+00  0.00000000E+00  0.00000000E+00
  0.00000000E+00  0.00000000E+00
MxBond                                     I                3
NBond                                      I   N=          16
           3           3           1           1           1           1
           1           1           3           1           3           1
           3           3           3           3
IBond                                      I   N=          48
           2           5          16           1           6          14
          13           0           0          16           0           0
           1           0           0           2           0           0
          14           0           0          15           0           0
          10          11          13           9           0           0
           9          12          16          11           0           0
           3           9          15           2           7          15
           8          13          14           1           4          11
RBond                                      R   N=          48
  1.50000000E+00  1.00000000E+00  1.00000000E+00  1.50000000E+00  1.00000000E+00
  1.50000000E+00  1.00000000E+00  0.00000000E+00  0.00000000E+00  1.00000000E+00
  0.00000000E+00  0.00000000E+00  1.00000000E+00  0.00000000E+00  0.00000000E+00
  1.00000000E+00  0.00000000E+00  0.00000000E+00  1.00000000E+00  0.00000000E+00
  0.00000000E+00  1.00000000E+00  0.00000000E+00  0.00000000E+00  1.00000000E+00
  1.00000000E+00  2.00000000E+00  1.00000000E+00  0.00000000E+00  0.00000000E+00
  1.00000000E+00  1.00000000E+00  1.50000000E+00  1.00000000E+00  0.00000000E+00
  0.00000000E+00  1.00000000E+00  2.00000000E+00  1.00000000E+00  1.50000000E+00
  1.00000000E+00  1.00000000E+00  1.00000000E+00  1.00000000E+00  1.00000000E+00
  1.00000000E+00  1.00000000E+00  1.50000000E+00
Virial Ratio                               R      2.004460947766526E+00
SCF Energy                                 R     -3.130407385484805E+02
Total Energy                               R     -3.130407385484805E+02
RMS Density                                R      5.859884507121442E-09
Job Status                                 I                1
Nuclear derivative order                   I                0
External E-field                           R   N=          35
  0.00000000E+00  0.00000000E+00  0.00000000E+00  0.00000000E+00  0.00000000E+00
  0.00000000E+00  0.00000000E+00  0.00000000E+00  0.00000000E+00  0.00000000E+00
  0.00000000E+00  0.00000000E+00  0.00000000E+00  0.00000000E+00  0.00000000E+00
  0.00000000E+00  0.00000000E+00  0.00000000E+00  0.00000000E+00  0.00000000E+00
  0.00000000E+00  0.00000000E+00  0.00000000E+00  0.00000000E+00  0.00000000E+00
  0.00000000E+00  0.00000000E+00  0.00000000E+00  0.00000000E+00  0.00000000E+00
  0.00000000E+00  0.00000000E+00  0.00000000E+00  0.00000000E+00  0.00000000E+00
IOpCl                                      I                0
IROHF                                      I                0
Alpha Orbital Energies                     R   N=         192
 -1.43918470E+01 -1.02347299E+01 -1.02169786E+01 -1.01821723E+01 -1.01683754E+01
 -1.01450388E+01 -1.01389869E+01 -6.68812030E+00 -9.95453398E-01 -7.92203569E-01
 -7.81920905E-01 -6.96587105E-01 -6.56595455E-01 -5.88000898E-01 -5.65301029E-01
 -5.40287382E-01 -4.92854263E-01 -4.62842869E-01 -4.53896637E-01 -4.25597176E-01
 -4.10850901E-01 -3.75974633E-01 -3.61661480E-01 -3.24157495E-01 -2.96278189E-01
 -2.74036514E-01 -2.45005995E-01 -2.08753910E-01 -6.19169285E-02 -2.35758431E-02
  9.61607696E-03  3.55853538E-02  6.19009130E-02  7.47813985E-02  8.57926397E-02
  9.47740116E-02  9.62328921E-02  1.21868436E-01  1.31333267E-01  1.61192653E-01
  2.08419669E-01  2.25920194E-01  2.43526801E-01  2.63205985E-01  2.76997691E-01
  3.08411895E-01  3.12613396E-01  3.28402071E-01  3.46164048E-01  3.56221692E-01
  3.62952581E-01  3.64136345E-01  3.88885412E-01  4.08295309E-01  4.16486861E-01
  4.23231577E-01  4.39352130E-01  4.47914190E-01  4.77908574E-01  4.91395795E-01
  5.09986671E-01  5.19166415E-01  5.24904785E-01  5.39278371E-01  5.47655539E-01
  5.62568674E-01  5.65399397E-01  5.92980557E-01  6.02826913E-01  6.05069421E-01
  6.14570621E-01  6.33132357E-01  6.53538454E-01  6.59119370E-01  6.74090237E-01
  7.02298520E-01  7.14825044E-01  7.41958446E-01  7.61158033E-01  7.74765957E-01
  8.00749346E-01  8.08654547E-01  8.35620531E-01  8.47500824E-01  8.81527477E-01
  9.44309725E-01  9.56518363E-01  1.01601127E+00  1.08182228E+00  1.09679517E+00
  1.11286861E+00  1.13712747E+00  1.21665235E+00  1.22680912E+00  1.25630710E+00
  1.26794995E+00  1.28376901E+00  1.32163391E+00  1.35595723E+00  1.39025584E+00
  1.42489463E+00  1.43707299E+00  1.45799653E+00  1.48603162E+00  1.51491899E+00
  1.52490082E+00  1.54797932E+00  1.55808120E+00  1.58038381E+00  1.61188246E+00
  1.64568834E+00  1.65933877E+00  1.67275056E+00  1.70200428E+00  1.70940301E+00
  1.73922627E+00  1.74486090E+00  1.77752736E+00  1.79945492E+00  1.80662575E+00
  1.81575296E+00  1.83622135E+00  1.85924542E+00  1.87827418E+00  1.89129052E+00
  1.91746329E+00  1.93408448E+00  1.93861684E+00  1.98211164E+00  2.00724883E+00
  2.06850460E+00  2.08500919E+00  2.13280366E+00  2.15673920E+00  2.17270733E+00
  2.19367883E+00  2.21423083E+00  2.23860256E+00  2.27883306E+00  2.31341659E+00
  2.31403991E+00  2.38035706E+00  2.42429602E+00  2.46970204E+00  2.47911770E+00
  2.50588578E+00  2.53201178E+00  2.55005627E+00  2.56271110E+00  2.57677171E+00
  2.59787998E+00  2.62270017E+00  2.62604131E+00  2.64498146E+00  2.67070438E+00
  2.67842942E+00  2.69864980E+00  2.72940663E+00  2.76418549E+00  2.79480390E+00
  2.81163322E+00  2.84548320E+00  2.90617624E+00  2.93268420E+00  2.94783208E+00
  2.98150773E+00  3.02295749E+00  3.12785182E+00  3.22338644E+00  3.26562574E+00
  3.32338829E+00  3.46205488E+00  3.49722659E+00  3.55502222E+00  3.63824028E+00
  3.68093334E+00  3.72753136E+00  3.84854408E+00  3.92777255E+00  3.95243391E+00
  4.15124367E+00  4.20140201E+00  4.79788125E+00  4.97980680E+00  1.46773480E+01
  2.36326468E+01  2.37639544E+01  2.38942057E+01  2.39696640E+01  2.41281111E+01
  2.42623512E+01  3.55580947E+01
Alpha MO coefficients                      R   N=       36864
  8.37906325E-06  1.97842462E-05 -2.69717516E-05 -4.04603728E-04  2.28908889E-04
  3.45191515E-04 -6.86391843E-05  1.18364711E-03 -5.54443021E-04  3.16146287E-03
 -2.31191405E-03 -3.18438002E-03  2.59427978E-03 -2.40540087E-04 -1.71325795E-04
  7.39464594E-04  5.10768448E-04 -5.17518678E-04 -7.99542400E-06  4.06887016E-05
  1.00729709E-04 -1.32192414E-04 -1.86448451E-05 -1.13943199E-04 -6.80529426E-04
  9.24013530E-04  7.41407096E-05 -2.71863095E-03  3.05585356E-03  8.45426339E-05
 -1.89904263E-03  1.65606612E-04 -2.47951446E-04 -5.33967109E-05  2.56609712E-04
  3.20564029E-04  9.84957978E-06 -2.27999352E-04  1.42347524E-04 -8.26557891E-05
 -4.77028185E-06 -3.02716099E-05  7.92839291E-06 -2.27521207E-03 -5.62433400E-05
  1.21473565E-03 -4.73795747E-04  1.05498600E-03 -2.40082379E-04  3.48013299E-04
  6.69398543E-04  1.77678478E-04  2.70887285E-04 -2.05027467E-04 -2.30439150E-05
 -5.14067127E-04 -1.68451016E-04  2.24496347E-05  1.36650579E-04  1.41899593E-05