Title Card Required                                                     
SP        UB3LYP                                                      6-311G(d,p)         
Number of atoms                            I               16
Info1-9                                    I   N=           9
          23          23           0           0           0         110
           1          18        -502
Full Title                                 C   N=           2
Title Card Required     
Route                                      C   N=           4
#p ub3lyp/6-311g(d,p) nosymm density=current    
Charge                                     I                0
Multiplicity                               I                3
Number of electrons                        I               56
Number of alpha electrons                  I               29
Number of beta electrons                   I               27
Number of basis functions                  I              192
Number of independent functions            I              192
Number of point charges in /Mol/           I                0
Number of translation vectors              I                0
Atomic numbers                             I   N=          16
           6           6           1           1           1           1
           1           1           6           1           6           1
           6           6           5           7
Nuclear charges                            R   N=          16
  6.00000000E+00  6.00000000E+00  1.00000000E+00  1.00000000E+00  1.00000000E+00
  1.00000000E+00  1.00000000E+00  1.00000000E+00  6.00000000E+00  1.00000000E+00
  6.00000000E+00  1.00000000E+00  6.00000000E+00  6.00000000E+00  5.00000000E+00
  7.00000000E+00
Current cartesian coordinates              R   N=          48
  2.43851393E+00  2.31930056E+00  0.00000000E+00  3.53517491E+00 -5.65916283E-02
  0.00000000E+00 -4.17024194E+00 -3.89825555E+00  0.00000000E+00  0.00000000E+00
  5.14391199E+00  0.00000000E+00  3.75656956E+00  3.88799056E+00  0.00000000E+00
  5.58402731E+00  1.26553069E-01  0.00000000E+00  4.17024194E+00 -3.89825555E+00
  0.00000000E+00  0.00000000E+00 -6.01533463E+00  0.00000000E+00 -3.53517491E+00
 -5.65916283E-02  0.00000000E+00 -5.58402731E+00  1.26553069E-01  0.00000000E+00
 -2.43851393E+00  2.31930056E+00  0.00000000E+00 -3.75656956E+00  3.88799056E+00
  0.00000000E+00 -2.62440440E+00 -2.53747700E+00  0.00000000E+00  2.62440440E+00
 -2.53747700E+00  0.00000000E+00  0.00000000E+00 -3.74693951E+00  0.00000000E+00
  0.00000000E+00  3.23868066E+00  0.00000000E+00
Number of symbols in /Mol/                 I                0
Force Field                                I                0
Atom Types                                 C   N=          16
                                                            
                                                            
                                                            
            
Int Atom Types                             I   N=          16
           0           0           0           0           0           0
           0           0           0           0           0           0
           0           0           0           0
MM charges                                 R   N=          16
  0.00000000E+00  0.00000000E+00  0.00000000E+00  0.00000000E+00  0.00000000E+00
  0.00000000E+00  0.00000000E+00  0.00000000E+00  0.00000000E+00  0.00000000E+00
  0.00000000E+00  0.00000000E+00  0.00000000E+00  0.00000000E+00  0.00000000E+00
  0.00000000E+00
Integer atomic weights                     I   N=          16
          12          12           1           1           1           1
           1           1          12           1          12           1
          12          12          11          14
Real atomic weights                        R   N=          16
  1.20000000E+01  1.20000000E+01  1.00782504E+00  1.00782504E+00  1.00782504E+00
  1.00782504E+00  1.00782504E+00  1.00782504E+00  1.20000000E+01  1.00782504E+00
  1.20000000E+01  1.00782504E+00  1.20000000E+01  1.20000000E+01  1.10093053E+01
  1.40030740E+01
Atom fragment info                         I   N=          16
           0           0           0           0           0           0
           0           0           0           0           0           0
           0           0           0           0
Atom residue num                           I   N=          16
           0           0           0           0           0           0
           0           0           0           0           0           0
           0           0           0           0
Nuclear spins                              I   N=          16
           0           0           1           1           1           1
           1           1           0           1           0           1
           0           0           3           2
Nuclear ZEff                               R   N=          16
 -3.60000000E+00 -3.60000000E+00 -1.00000000E+00 -1.00000000E+00 -1.00000000E+00
 -1.00000000E+00 -1.00000000E+00 -1.00000000E+00 -3.60000000E+00 -1.00000000E+00
 -3.60000000E+00 -1.00000000E+00 -3.60000000E+00 -3.60000000E+00 -2.75000000E+00
 -4.55000000E+00
Nuclear ZNuc                               R   N=          16
  6.00000000E+00  6.00000000E+00  1.00000000E+00  1.00000000E+00  1.00000000E+00
  1.00000000E+00  1.00000000E+00  1.00000000E+00  6.00000000E+00  1.00000000E+00
  6.00000000E+00  1.00000000E+00  6.00000000E+00  6.00000000E+00  5.00000000E+00
  7.00000000E+00
Nuclear QMom                               R   N=          16
  0.00000000E+00  0.00000000E+00  0.00000000E+00  0.00000000E+00  0.00000000E+00
  0.00000000E+00  0.00000000E+00  0.00000000E+00  0.00000000E+00  0.00000000E+00
  0.00000000E+00  0.00000000E+00  0.00000000E+00  0.00000000E+00  4.05900000E+00
  2.04400000E+00
Nuclear GFac                               R   N=          16
  0.00000000E+00  0.00000000E+00  2.79284600E+00  2.79284600E+00  2.79284600E+00
  2.79284600E+00  2.79284600E+00  2.79284600E+00  0.00000000E+00  2.79284600E+00
  0.00000000E+00  2.79284600E+00  0.00000000E+00  0.00000000E+00  2.68863700E+00
  4.03761000E-01
MicOpt                                     I   N=          16
          -1          -1          -1          -1          -1          -1
          -1          -1          -1          -1          -1          -1
          -1          -1          -1          -1
Number of residues                         I                0
Number of secondary structures             I                0
Number of contracted shells                I               72
Number of primitive shells                 I              144
Pure/Cartesian d shells                    I                0
Pure/Cartesian f shells                    I                0
Highest angular momentum                   I                2
Largest degree of contraction              I                6
Shell types                                I   N=          72
           0          -1          -1          -1          -2           0
          -1          -1          -1          -2           0           0
           0           1           0           0           0           1
           0           0           0           1           0           0
           0           1           0           0           0           1
           0           0           0           1           0          -1
          -1          -1          -2           0           0           0
           1           0          -1          -1          -1          -2
           0           0           0           1           0          -1
          -1          -1          -2           0          -1          -1
          -1          -2           0          -1          -1          -1
          -2           0          -1          -1          -1          -2
Number of primitives per shell             I   N=          72
           6           3           1           1           1           6
           3           1           1           1           3           1
           1           1           3           1           1           1
           3           1           1           1           3           1
           1           1           3           1           1           1
           3           1           1           1           6           3
           1           1           1           3           1           1
           1           6           3           1           1           1
           3           1           1           1           6           3
           1           1           1           6           3           1
           1           1           6           3           1           1
           1           6           3           1           1           1
Shell to atom map                          I   N=          72
           1           1           1           1           1           2
           2           2           2           2           3           3
           3           3           4           4           4           4
           5           5           5           5           6           6
           6           6           7           7           7           7
           8           8           8           8           9           9
           9           9           9          10          10          10
          10          11          11          11          11          11
          12          12          12          12          13          13
          13          13          13          14          14          14
          14          14          15          15          15          15
          15          16          16          16          16          16
Primitive exponents                        R   N=         144
  4.56324000E+03  6.82024000E+02  1.54973000E+02  4.44553000E+01  1.30290000E+01
  1.82773000E+00  2.09642000E+01  4.80331000E+00  1.45933000E+00  4.83456000E-01
  1.45585000E-01  6.26000000E-01  4.56324000E+03  6.82024000E+02  1.54973000E+02
  4.44553000E+01  1.30290000E+01  1.82773000E+00  2.09642000E+01  4.80331000E+00
  1.45933000E+00  4.83456000E-01  1.45585000E-01  6.26000000E-01  3.38650000E+01
  5.09479000E+00  1.15879000E+00  3.25840000E-01  1.02741000E-01  7.50000000E-01
  3.38650000E+01  5.09479000E+00  1.15879000E+00  3.25840000E-01  1.02741000E-01
  7.50000000E-01  3.38650000E+01  5.09479000E+00  1.15879000E+00  3.25840000E-01
  1.02741000E-01  7.50000000E-01  3.38650000E+01  5.09479000E+00  1.15879000E+00
  3.25840000E-01  1.02741000E-01  7.50000000E-01  3.38650000E+01  5.09479000E+00
  1.15879000E+00  3.25840000E-01  1.02741000E-01  7.50000000E-01  3.38650000E+01
  5.09479000E+00  1.15879000E+00  3.25840000E-01  1.02741000E-01  7.50000000E-01
  4.56324000E+03  6.82024000E+02  1.54973000E+02  4.44553000E+01  1.30290000E+01
  1.82773000E+00  2.09642000E+01  4.80331000E+00  1.45933000E+00  4.83456000E-01
  1.45585000E-01  6.26000000E-01  3.38650000E+01  5.09479000E+00  1.15879000E+00
  3.25840000E-01  1.02741000E-01  7.50000000E-01  4.56324000E+03  6.82024000E+02
  1.54973000E+02  4.44553000E+01  1.30290000E+01  1.82773000E+00  2.09642000E+01
  4.80331000E+00  1.45933000E+00  4.83456000E-01  1.45585000E-01  6.26000000E-01
  3.38650000E+01  5.09479000E+00  1.15879000E+00  3.25840000E-01  1.02741000E-01
  7.50000000E-01  4.56324000E+03  6.82024000E+02  1.54973000E+02  4.44553000E+01
  1.30290000E+01  1.82773000E+00  2.09642000E+01  4.80331000E+00  1.45933000E+00
  4.83456000E-01  1.45585000E-01  6.26000000E-01  4.56324000E+03  6.82024000E+02
  1.54973000E+02  4.44553000E+01  1.30290000E+01  1.82773000E+00  2.09642000E+01
  4.80331000E+00  1.45933000E+00  4.83456000E-01  1.45585000E-01  6.26000000E-01
  2.85889000E+03  4.28140000E+02  9.75282000E+01  2.79693000E+01  8.21577000E+00
  1.11278000E+00  1.32415000E+01  3.00166000E+00  9.12856000E-01  3.15454000E-01
  9.88563000E-02  4.01000000E-01  6.29348000E+03  9.49044000E+02  2.18776000E+02
  6.36916000E+01  1.88282000E+01  2.72023000E+00  3.06331000E+01  7.02614000E+00
  2.11205000E+00  6.84009000E-01  2.00878000E-01  9.13000000E-01
Contraction coefficients                   R   N=         144
  1.96665025E-03  1.52306019E-02  7.61269097E-02  2.60801033E-01  6.16462078E-01
  2.21006028E-01  1.14660081E-01  9.19999648E-01 -3.03068213E-03  1.00000000E+00
  1.00000000E+00  1.00000000E+00  1.96665025E-03  1.52306019E-02  7.61269097E-02
  2.60801033E-01  6.16462078E-01  2.21006028E-01  1.14660081E-01  9.19999648E-01
 -3.03068213E-03  1.00000000E+00  1.00000000E+00  1.00000000E+00  2.54938145E-02
  1.90373109E-01  8.52161486E-01  1.00000000E+00  1.00000000E+00  1.00000000E+00
  2.54938145E-02  1.90373109E-01  8.52161486E-01  1.00000000E+00  1.00000000E+00
  1.00000000E+00  2.54938145E-02  1.90373109E-01  8.52161486E-01  1.00000000E+00
  1.00000000E+00  1.00000000E+00  2.54938145E-02  1.90373109E-01  8.52161486E-01
  1.00000000E+00  1.00000000E+00  1.00000000E+00  2.54938145E-02  1.90373109E-01
  8.52161486E-01  1.00000000E+00  1.00000000E+00  1.00000000E+00  2.54938145E-02
  1.90373109E-01  8.52161486E-01  1.00000000E+00  1.00000000E+00  1.00000000E+00
  1.96665025E-03  1.52306019E-02  7.61269097E-02  2.60801033E-01  6.16462078E-01
  2.21006028E-01  1.14660081E-01  9.19999648E-01 -3.03068213E-03  1.00000000E+00
  1.00000000E+00  1.00000000E+00  2.54938145E-02  1.90373109E-01  8.52161486E-01
  1.00000000E+00  1.00000000E+00  1.00000000E+00  1.96665025E-03  1.52306019E-02
  7.61269097E-02  2.60801033E-01  6.16462078E-01  2.21006028E-01  1.14660081E-01
  9.19999648E-01 -3.03068213E-03  1.00000000E+00  1.00000000E+00  1.00000000E+00
  2.54938145E-02  1.90373109E-01  8.52161486E-01  1.00000000E+00  1.00000000E+00
  1.00000000E+00  1.96665025E-03  1.52306019E-02  7.61269097E-02  2.60801033E-01
  6.16462078E-01  2.21006028E-01  1.14660081E-01  9.19999648E-01 -3.03068213E-03
  1.00000000E+00  1.00000000E+00  1.00000000E+00  1.96665025E-03  1.52306019E-02
  7.61269097E-02  2.60801033E-01  6.16462078E-01  2.21006028E-01  1.14660081E-01
  9.19999648E-01 -3.03068213E-03  1.00000000E+00  1.00000000E+00  1.00000000E+00
  2.15374907E-03  1.65822928E-02  8.21869644E-02  2.76617880E-01  6.29315727E-01
  1.73769925E-01  1.17442942E-01  9.18001549E-01 -2.65104870E-03  1.00000000E+00
  1.00000000E+00  1.00000000E+00  1.96978815E-03  1.49612859E-02  7.35005308E-02
  2.48936766E-01  6.02459433E-01  2.56201759E-01  1.11906080E-01  9.21666655E-01
 -2.56919183E-03  1.00000000E+00  1.00000000E+00  1.00000000E+00
P(S=P) Contraction coefficients            R   N=         144
  0.00000000E+00  0.00000000E+00  0.00000000E+00  0.00000000E+00  0.00000000E+00
  0.00000000E+00  4.02486927E-02  2.37593957E-01  8.15853851E-01  1.00000000E+00
  1.00000000E+00  0.00000000E+00  0.00000000E+00  0.00000000E+00  0.00000000E+00
  0.00000000E+00  0.00000000E+00  0.00000000E+00  4.02486927E-02  2.37593957E-01
  8.15853851E-01  1.00000000E+00  1.00000000E+00  0.00000000E+00  0.00000000E+00
  0.00000000E+00  0.00000000E+00  0.00000000E+00  0.00000000E+00  0.00000000E+00
  0.00000000E+00  0.00000000E+00  0.00000000E+00  0.00000000E+00  0.00000000E+00
  0.00000000E+00  0.00000000E+00  0.00000000E+00  0.00000000E+00  0.00000000E+00
  0.00000000E+00  0.00000000E+00  0.00000000E+00  0.00000000E+00  0.00000000E+00
  0.00000000E+00  0.00000000E+00  0.00000000E+00  0.00000000E+00  0.00000000E+00
  0.00000000E+00  0.00000000E+00  0.00000000E+00  0.00000000E+00  0.00000000E+00
  0.00000000E+00  0.00000000E+00  0.00000000E+00  0.00000000E+00  0.00000000E+00
  0.00000000E+00  0.00000000E+00  0.00000000E+00  0.00000000E+00  0.00000000E+00
  0.00000000E+00  4.02486927E-02  2.37593957E-01  8.15853851E-01  1.00000000E+00
  1.00000000E+00  0.00000000E+00  0.00000000E+00  0.00000000E+00  0.00000000E+00
  0.00000000E+00  0.00000000E+00  0.00000000E+00  0.00000000E+00  0.00000000E+00
  0.00000000E+00  0.00000000E+00  0.00000000E+00  0.00000000E+00  4.02486927E-02
  2.37593957E-01  8.15853851E-01  1.00000000E+00  1.00000000E+00  0.00000000E+00
  0.00000000E+00  0.00000000E+00  0.00000000E+00  0.00000000E+00  0.00000000E+00
  0.00000000E+00  0.00000000E+00  0.00000000E+00  0.00000000E+00  0.00000000E+00
  0.00000000E+00  0.00000000E+00  4.02486927E-02  2.37593957E-01  8.15853851E-01
  1.00000000E+00  1.00000000E+00  0.00000000E+00  0.00000000E+00  0.00000000E+00
  0.00000000E+00  0.00000000E+00  0.00000000E+00  0.00000000E+00  4.02486927E-02
  2.37593957E-01  8.15853851E-01  1.00000000E+00  1.00000000E+00  0.00000000E+00
  0.00000000E+00  0.00000000E+00  0.00000000E+00  0.00000000E+00  0.00000000E+00
  0.00000000E+00  4.18099989E-02  2.36574994E-01  8.16213978E-01  1.00000000E+00
  1.00000000E+00  0.00000000E+00  0.00000000E+00  0.00000000E+00  0.00000000E+00
  0.00000000E+00  0.00000000E+00  0.00000000E+00  3.83119186E-02  2.37403116E-01
  8.17592398E-01  1.00000000E+00  1.00000000E+00  0.00000000E+00
Coordinates of each shell                  R   N=         216
  2.43851393E+00  2.31930056E+00  0.00000000E+00  2.43851393E+00  2.31930056E+00
  0.00000000E+00  2.43851393E+00  2.31930056E+00  0.00000000E+00  2.43851393E+00
  2.31930056E+00  0.00000000E+00  2.43851393E+00  2.31930056E+00  0.00000000E+00
  3.53517491E+00 -5.65916283E-02  0.00000000E+00  3.53517491E+00 -5.65916283E-02
  0.00000000E+00  3.53517491E+00 -5.65916283E-02  0.00000000E+00  3.53517491E+00
 -5.65916283E-02  0.00000000E+00  3.53517491E+00 -5.65916283E-02  0.00000000E+00
 -4.17024194E+00 -3.89825555E+00  0.00000000E+00 -4.17024194E+00 -3.89825555E+00
  0.00000000E+00 -4.17024194E+00 -3.89825555E+00  0.00000000E+00 -4.17024194E+00
 -3.89825555E+00  0.00000000E+00  0.00000000E+00  5.14391199E+00  0.00000000E+00
  0.00000000E+00  5.14391199E+00  0.00000000E+00  0.00000000E+00  5.14391199E+00
  0.00000000E+00  0.00000000E+00  5.14391199E+00  0.00000000E+00  3.75656956E+00
  3.88799056E+00  0.00000000E+00  3.75656956E+00  3.88799056E+00  0.00000000E+00
  3.75656956E+00  3.88799056E+00  0.00000000E+00  3.75656956E+00  3.88799056E+00
  0.00000000E+00  5.58402731E+00  1.26553069E-01  0.00000000E+00  5.58402731E+00
  1.26553069E-01  0.00000000E+00  5.58402731E+00  1.26553069E-01  0.00000000E+00
  5.58402731E+00  1.26553069E-01  0.00000000E+00  4.17024194E+00 -3.89825555E+00
  0.00000000E+00  4.17024194E+00 -3.89825555E+00  0.00000000E+00  4.17024194E+00
 -3.89825555E+00  0.00000000E+00  4.17024194E+00 -3.89825555E+00  0.00000000E+00
  0.00000000E+00 -6.01533463E+00  0.00000000E+00  0.00000000E+00 -6.01533463E+00
  0.00000000E+00  0.00000000E+00 -6.01533463E+00  0.00000000E+00  0.00000000E+00
 -6.01533463E+00  0.00000000E+00 -3.53517491E+00 -5.65916283E-02  0.00000000E+00
 -3.53517491E+00 -5.65916283E-02  0.00000000E+00 -3.53517491E+00 -5.65916283E-02
  0.00000000E+00 -3.53517491E+00 -5.65916283E-02  0.00000000E+00 -3.53517491E+00
 -5.65916283E-02  0.00000000E+00 -5.58402731E+00  1.26553069E-01  0.00000000E+00
 -5.58402731E+00  1.26553069E-01  0.00000000E+00 -5.58402731E+00  1.26553069E-01
  0.00000000E+00 -5.58402731E+00  1.26553069E-01  0.00000000E+00 -2.43851393E+00
  2.31930056E+00  0.00000000E+00 -2.43851393E+00  2.31930056E+00  0.00000000E+00
 -2.43851393E+00  2.31930056E+00  0.00000000E+00 -2.43851393E+00  2.31930056E+00
  0.00000000E+00 -2.43851393E+00  2.31930056E+00  0.00000000E+00 -3.75656956E+00
  3.88799056E+00  0.00000000E+00 -3.75656956E+00  3.88799056E+00  0.00000000E+00
 -3.75656956E+00  3.88799056E+00  0.00000000E+00 -3.75656956E+00  3.88799056E+00
  0.00000000E+00 -2.62440440E+00 -2.53747700E+00  0.00000000E+00 -2.62440440E+00
 -2.53747700E+00  0.00000000E+00 -2.62440440E+00 -2.53747700E+00  0.00000000E+00
 -2.62440440E+00 -2.53747700E+00  0.00000000E+00 -2.62440440E+00 -2.53747700E+00
  0.00000000E+00  2.62440440E+00 -2.53747700E+00  0.00000000E+00  2.62440440E+00
 -2.53747700E+00  0.00000000E+00  2.62440440E+00 -2.53747700E+00  0.00000000E+00
  2.62440440E+00 -2.53747700E+00  0.00000000E+00  2.62440440E+00 -2.53747700E+00
  0.00000000E+00  0.00000000E+00 -3.74693951E+00  0.00000000E+00  0.00000000E+00
 -3.74693951E+00  0.00000000E+00  0.00000000E+00 -3.74693951E+00  0.00000000E+00
  0.00000000E+00 -3.74693951E+00  0.00000000E+00  0.00000000E+00 -3.74693951E+00
  0.00000000E+00  0.00000000E+00  3.23868066E+00  0.00000000E+00  0.00000000E+00
  3.23868066E+00  0.00000000E+00  0.00000000E+00  3.23868066E+00  0.00000000E+00
  0.00000000E+00  3.23868066E+00  0.00000000E+00  0.00000000E+00  3.23868066E+00
  0.00000000E+00
Num ILSW                                   I              100
ILSW                                       I   N=         100
           1           0           0           0           2           0
           0           0           0           0         402          -1
           5           0           0           0           0           0
           0           0           0           0           0           0
           1           1           0           0           0           0
           0           0      100000           0          -1           0
           0           0           0           0           0           0
           0           0           0           1           0           0
           0 -2000000000           1           0           0           0
           0           0           4          52           0           0
           0           0           5           0           0           0
           0           0           0          16           0           1
           0           0           0           0           0           0
           0           0           0           0           0           0
           0           0           0           0           0           0
           0           0           0           0           0           0
           0           0           0           0
Num RLSW                                   I               52
RLSW                                       R   N=          52
  8.00000000E-01  7.20000000E-01  1.00000000E+00  8.10000000E-01  2.00000000E-01
  0.00000000E+00  0.00000000E+00  1.00000000E+00  0.00000000E+00  0.00000000E+00
  0.00000000E+00  0.00000000E+00  1.00000000E+00  0.00000000E+00  0.00000000E+00
  0.00000000E+00  0.00000000E+00  1.00000000E+00  0.00000000E+00  0.00000000E+00
  0.00000000E+00  0.00000000E+00  1.00000000E+00  0.00000000E+00  0.00000000E+00
  0.00000000E+00  0.00000000E+00  1.00000000E+00  0.00000000E+00  0.00000000E+00
  0.00000000E+00  0.00000000E+00  1.00000000E+00  0.00000000E+00  0.00000000E+00
  0.00000000E+00  0.00000000E+00  0.00000000E+00  1.00000000E+00  1.00000000E+00
  0.00000000E+00  1.00000000E+00  0.00000000E+00  0.00000000E+00  0.00000000E+00
  0.00000000E+00  0.00000000E+00  0.00000000E+00  0.00000000E+00  0.00000000E+00
  0.00000000E+00  0.00000000E+00
MxBond                                     I                3
NBond                                      I   N=          16
           3           3           1           1           1           1
           1           1           3           1           3           1
           3           3           3           3
IBond                                      I   N=          48
           2           5          16           1           6          14
          13           0           0          16           0           0
           1           0           0           2           0           0
          14           0           0          15           0           0
          10          11          13           9           0           0
           9          12          16          11           0           0
           3           9          15           2           7          15
           8          13          14           1           4          11
RBond                                      R   N=          48
  1.50000000E+00  1.00000000E+00  1.00000000E+00  1.50000000E+00  1.00000000E+00
  1.50000000E+00  1.00000000E+00  0.00000000E+00  0.00000000E+00  1.00000000E+00
  0.00000000E+00  0.00000000E+00  1.00000000E+00  0.00000000E+00  0.00000000E+00
  1.00000000E+00  0.00000000E+00  0.00000000E+00  1.00000000E+00  0.00000000E+00
  0.00000000E+00  1.00000000E+00  0.00000000E+00  0.00000000E+00  1.00000000E+00
  1.50000000E+00  1.50000000E+00  1.00000000E+00  0.00000000E+00  0.00000000E+00
  1.50000000E+00  1.00000000E+00  1.00000000E+00  1.00000000E+00  0.00000000E+00
  0.00000000E+00  1.00000000E+00  1.50000000E+00  1.00000000E+00  1.50000000E+00
  1.00000000E+00  1.00000000E+00  1.00000000E+00  1.00000000E+00  1.00000000E+00
  1.00000000E+00  1.00000000E+00  1.00000000E+00
Virial Ratio                               R      2.004417615973110E+00
SCF Energy                                 R     -3.130385599900847E+02
Total Energy                               R     -3.130385599900847E+02
S**2                                       R      2.014102677943733E+00
S**2 after annihilation                    R      2.000099357533056E+00
RMS Density                                R      5.023377681358982E-09
Job Status                                 I                1
Nuclear derivative order                   I                0
External E-field                           R   N=          35
  0.00000000E+00  0.00000000E+00  0.00000000E+00  0.00000000E+00  0.00000000E+00
  0.00000000E+00  0.00000000E+00  0.00000000E+00  0.00000000E+00  0.00000000E+00
  0.00000000E+00  0.00000000E+00  0.00000000E+00  0.00000000E+00  0.00000000E+00
  0.00000000E+00  0.00000000E+00  0.00000000E+00  0.00000000E+00  0.00000000E+00
  0.00000000E+00  0.00000000E+00  0.00000000E+00  0.00000000E+00  0.00000000E+00
  0.00000000E+00  0.00000000E+00  0.00000000E+00  0.00000000E+00  0.00000000E+00
  0.00000000E+00  0.00000000E+00  0.00000000E+00  0.00000000E+00  0.00000000E+00
IOpCl                                      I                1
IROHF                                      I                0
Alpha Orbital Energies                     R   N=         192
 -1.43886565E+01 -1.02330039E+01 -1.02329870E+01 -1.01776664E+01 -1.01776654E+01
 -1.01510274E+01 -1.01510235E+01 -6.69001753E+00 -9.87079385E-01 -8.10087303E-01
 -7.83321823E-01 -7.13963811E-01 -6.71935773E-01 -6.00898322E-01 -5.81725688E-01
 -5.29834379E-01 -4.75140968E-01 -4.59946602E-01 -4.54985993E-01 -4.32634680E-01
 -4.22328731E-01 -3.85019963E-01 -3.68658311E-01 -3.28031220E-01 -3.06090849E-01
 -3.05568904E-01 -2.95563421E-01 -1.95435028E-01 -1.78089347E-01 -2.46470995E-03
  1.06901642E-02  3.35903756E-02  4.82068899E-02  6.06108448E-02  9.82138959E-02
  9.87589287E-02  1.33669822E-01  1.34103504E-01  1.38382745E-01  1.75292885E-01
  1.95611642E-01  2.15700342E-01  2.35960112E-01  2.54566654E-01  2.83652534E-01
  2.90823823E-01  2.95602904E-01  3.13173299E-01  3.24054998E-01  3.31183860E-01
  3.62076009E-01  3.77533802E-01  3.80258820E-01  3.91015550E-01  4.10909408E-01
  4.22502132E-01  4.22592362E-01  4.37362779E-01  4.52149393E-01  4.86885487E-01
  4.91806755E-01  5.08804027E-01  5.51046095E-01  5.60076539E-01  5.63891459E-01
  5.83708172E-01  5.85115353E-01  5.95448235E-01  6.01379848E-01  6.05633949E-01
  6.23602603E-01  6.68902242E-01  6.71957571E-01  7.13008302E-01  7.36718351E-01
  7.52199026E-01  7.53617216E-01  7.61429960E-01  7.77645244E-01  8.03957673E-01
  8.10942280E-01  8.19870360E-01  8.83569301E-01  8.94886294E-01  9.26286944E-01
  9.29918727E-01  9.92550329E-01  1.00159876E+00  1.00270817E+00  1.03854334E+00
  1.08619154E+00  1.08756154E+00  1.09071673E+00  1.13501638E+00  1.15260869E+00
  1.15869802E+00  1.24993455E+00  1.27444595E+00  1.38157824E+00  1.39016993E+00
  1.41154476E+00  1.41653332E+00  1.43410190E+00  1.45429371E+00  1.45443682E+00
  1.51872331E+00  1.52680553E+00  1.58208117E+00  1.59498017E+00  1.62324963E+00
  1.64051071E+00  1.65690274E+00  1.68280524E+00  1.68396600E+00  1.70697309E+00
  1.72649090E+00  1.74298671E+00  1.75324625E+00  1.75634744E+00  1.78965099E+00
  1.80505218E+00  1.84159722E+00  1.85077107E+00  1.88015579E+00  1.89181122E+00
  1.89509323E+00  1.90447750E+00  1.93754070E+00  1.94238557E+00  2.06510104E+00
  2.07427960E+00  2.08295552E+00  2.08668820E+00  2.10902085E+00  2.13054994E+00
  2.15150258E+00  2.19817424E+00  2.21568888E+00  2.25853206E+00  2.26418042E+00
  2.34562401E+00  2.40193649E+00  2.42452199E+00  2.46082242E+00  2.49992015E+00
  2.51236405E+00  2.53717887E+00  2.56250475E+00  2.58199782E+00  2.58454011E+00
  2.59048539E+00  2.61213002E+00  2.62802629E+00  2.67608133E+00  2.68239705E+00
  2.71395430E+00  2.72244743E+00  2.75578364E+00  2.77734615E+00  2.78859185E+00
  2.78983686E+00  2.79686239E+00  2.86939508E+00  2.90392536E+00  2.91140430E+00
  2.95076990E+00  3.02081371E+00  3.02529587E+00  3.22875650E+00  3.24921413E+00
  3.34759993E+00  3.41635613E+00  3.42270168E+00  3.57081461E+00  3.64002151E+00
  3.67485761E+00  3.75206292E+00  3.83508868E+00  3.95084087E+00  3.97083005E+00
  4.21036059E+00  4.28266411E+00  4.77610347E+00  5.14850769E+00  1.47164376E+01
  2.36275347E+01  2.36933104E+01  2.39518786E+01  2.39665154E+01  2.41580732E+01
  2.42019281E+01  3.55549682E+01
Beta Orbital Energies                      R   N=         192
 -1.43853459E+01 -1.02272348E+01 -1.02272227E+01 -1.01777061E+01 -1.01777045E+01
 -1.01447854E+01 -1.01447800E+01 -6.68797516E+00 -9.76947308E-01 -7.97748623E-01
 -7.73467010E-01 -7.01182282E-01 -6.54741606E-01 -5.90401752E-01 -5.78509921E-01
 -5.19955927E-01 -4.71196315E-01 -4.55722721E-01 -4.48510534E-01 -4.17458226E-01
 -4.02210548E-01 -3.81153604E-01 -3.63546426E-01 -2.98366535E-01 -2.92990400E-01
 -2.92384705E-01 -2.67846285E-01 -1.03296846E-01 -1.01582623E-01 -1.14987951E-03
  4.93422075E-02  4.98025920E-02  6.16437910E-02  6.88585098E-02  9.98484095E-02
  1.01759832E-01  1.36642922E-01  1.37042691E-01  1.73120306E-01  1.80289267E-01
  1.99889887E-01  2.23786986E-01  2.41283161E-01  2.60049450E-01  2.87354726E-01
  2.93533701E-01  3.01711753E-01  3.29737466E-01  3.31528471E-01  3.35851350E-01