Title Card Required                                                     
SP        UB3LYP                                                      6-311G(d,p)         
Number of atoms                            I               16
Info1-9                                    I   N=           9
          23          23           0           0           0         110
           1          18        -502
Full Title                                 C   N=           2
Title Card Required     
Route                                      C   N=           4
#p ub3lyp/6-311g(d,p) nosymm density=current    
Charge                                     I                0
Multiplicity                               I                3
Number of electrons                        I               56
Number of alpha electrons                  I               29
Number of beta electrons                   I               27
Number of basis functions                  I              192
Number of independent functions            I              192
Number of point charges in /Mol/           I                0
Number of translation vectors              I                0
Atomic numbers                             I   N=          16
           6           6           1           1           1           1
           1           1           1           1           5           7
           6           6           7           5
Nuclear charges                            R   N=          16
  6.00000000E+00  6.00000000E+00  1.00000000E+00  1.00000000E+00  1.00000000E+00
  1.00000000E+00  1.00000000E+00  1.00000000E+00  1.00000000E+00  1.00000000E+00
  5.00000000E+00  7.00000000E+00  6.00000000E+00  6.00000000E+00  7.00000000E+00
  5.00000000E+00
Current cartesian coordinates              R   N=          48
  2.41907621E+00 -2.43242523E+00  0.00000000E+00  3.45550217E+00  5.88611893E-02
  0.00000000E+00  3.82054245E+00 -3.92515013E+00  0.00000000E+00  2.77657459E-02
 -5.24634459E+00  0.00000000E+00 -4.07340671E+00 -4.16103520E+00  0.00000000E+00
 -5.45005140E+00 -8.26755179E-03  0.00000000E+00 -4.26955839E+00  4.16879252E+00
  0.00000000E+00  1.51586271E-01  5.62540665E+00  0.00000000E+00  4.07736946E+00
  3.89264495E+00  0.00000000E+00  5.50757277E+00 -5.65840693E-02  0.00000000E+00
 -2.57998072E+00 -2.46719808E+00  0.00000000E+00  0.00000000E+00 -3.33577668E+00
  0.00000000E+00  2.56870850E+00  2.49885666E+00  0.00000000E+00  6.74688918E-02
  3.56737962E+00  0.00000000E+00 -3.53691346E+00  3.71841410E-02  0.00000000E+00
 -2.63961291E+00  2.59612843E+00  0.00000000E+00
Number of symbols in /Mol/                 I                0
Force Field                                I                0
Atom Types                                 C   N=          16
                                                            
                                                            
                                                            
            
Int Atom Types                             I   N=          16
           0           0           0           0           0           0
           0           0           0           0           0           0
           0           0           0           0
MM charges                                 R   N=          16
  0.00000000E+00  0.00000000E+00  0.00000000E+00  0.00000000E+00  0.00000000E+00
  0.00000000E+00  0.00000000E+00  0.00000000E+00  0.00000000E+00  0.00000000E+00
  0.00000000E+00  0.00000000E+00  0.00000000E+00  0.00000000E+00  0.00000000E+00
  0.00000000E+00
Integer atomic weights                     I   N=          16
          12          12           1           1           1           1
           1           1           1           1          11          14
          12          12          14          11
Real atomic weights                        R   N=          16
  1.20000000E+01  1.20000000E+01  1.00782504E+00  1.00782504E+00  1.00782504E+00
  1.00782504E+00  1.00782504E+00  1.00782504E+00  1.00782504E+00  1.00782504E+00
  1.10093053E+01  1.40030740E+01  1.20000000E+01  1.20000000E+01  1.40030740E+01
  1.10093053E+01
Atom fragment info                         I   N=          16
           0           0           0           0           0           0
           0           0           0           0           0           0
           0           0           0           0
Atom residue num                           I   N=          16
           0           0           0           0           0           0
           0           0           0           0           0           0
           0           0           0           0
Nuclear spins                              I   N=          16
           0           0           1           1           1           1
           1           1           1           1           3           2
           0           0           2           3
Nuclear ZEff                               R   N=          16
 -3.60000000E+00 -3.60000000E+00 -1.00000000E+00 -1.00000000E+00 -1.00000000E+00
 -1.00000000E+00 -1.00000000E+00 -1.00000000E+00 -1.00000000E+00 -1.00000000E+00
 -2.75000000E+00 -4.55000000E+00 -3.60000000E+00 -3.60000000E+00 -4.55000000E+00
 -2.75000000E+00
Nuclear ZNuc                               R   N=          16
  6.00000000E+00  6.00000000E+00  1.00000000E+00  1.00000000E+00  1.00000000E+00
  1.00000000E+00  1.00000000E+00  1.00000000E+00  1.00000000E+00  1.00000000E+00
  5.00000000E+00  7.00000000E+00  6.00000000E+00  6.00000000E+00  7.00000000E+00
  5.00000000E+00
Nuclear QMom                               R   N=          16
  0.00000000E+00  0.00000000E+00  0.00000000E+00  0.00000000E+00  0.00000000E+00
  0.00000000E+00  0.00000000E+00  0.00000000E+00  0.00000000E+00  0.00000000E+00
  4.05900000E+00  2.04400000E+00  0.00000000E+00  0.00000000E+00  2.04400000E+00
  4.05900000E+00
Nuclear GFac                               R   N=          16
  0.00000000E+00  0.00000000E+00  2.79284600E+00  2.79284600E+00  2.79284600E+00
  2.79284600E+00  2.79284600E+00  2.79284600E+00  2.79284600E+00  2.79284600E+00
  2.68863700E+00  4.03761000E-01  0.00000000E+00  0.00000000E+00  4.03761000E-01
  2.68863700E+00
MicOpt                                     I   N=          16
          -1          -1          -1          -1          -1          -1
          -1          -1          -1          -1          -1          -1
          -1          -1          -1          -1
Number of residues                         I                0
Number of secondary structures             I                0
Number of contracted shells                I               72
Number of primitive shells                 I              144
Pure/Cartesian d shells                    I                0
Pure/Cartesian f shells                    I                0
Highest angular momentum                   I                2
Largest degree of contraction              I                6
Shell types                                I   N=          72
           0          -1          -1          -1          -2           0
          -1          -1          -1          -2           0           0
           0           1           0           0           0           1
           0           0           0           1           0           0
           0           1           0           0           0           1
           0           0           0           1           0           0
           0           1           0           0           0           1
           0          -1          -1          -1          -2           0
          -1          -1          -1          -2           0          -1
          -1          -1          -2           0          -1          -1
          -1          -2           0          -1          -1          -1
          -2           0          -1          -1          -1          -2
Number of primitives per shell             I   N=          72
           6           3           1           1           1           6
           3           1           1           1           3           1
           1           1           3           1           1           1
           3           1           1           1           3           1
           1           1           3           1           1           1
           3           1           1           1           3           1
           1           1           3           1           1           1
           6           3           1           1           1           6
           3           1           1           1           6           3
           1           1           1           6           3           1
           1           1           6           3           1           1
           1           6           3           1           1           1
Shell to atom map                          I   N=          72
           1           1           1           1           1           2
           2           2           2           2           3           3
           3           3           4           4           4           4
           5           5           5           5           6           6
           6           6           7           7           7           7
           8           8           8           8           9           9
           9           9          10          10          10          10
          11          11          11          11          11          12
          12          12          12          12          13          13
          13          13          13          14          14          14
          14          14          15          15          15          15
          15          16          16          16          16          16
Primitive exponents                        R   N=         144
  4.56324000E+03  6.82024000E+02  1.54973000E+02  4.44553000E+01  1.30290000E+01
  1.82773000E+00  2.09642000E+01  4.80331000E+00  1.45933000E+00  4.83456000E-01
  1.45585000E-01  6.26000000E-01  4.56324000E+03  6.82024000E+02  1.54973000E+02
  4.44553000E+01  1.30290000E+01  1.82773000E+00  2.09642000E+01  4.80331000E+00
  1.45933000E+00  4.83456000E-01  1.45585000E-01  6.26000000E-01  3.38650000E+01
  5.09479000E+00  1.15879000E+00  3.25840000E-01  1.02741000E-01  7.50000000E-01
  3.38650000E+01  5.09479000E+00  1.15879000E+00  3.25840000E-01  1.02741000E-01
  7.50000000E-01  3.38650000E+01  5.09479000E+00  1.15879000E+00  3.25840000E-01
  1.02741000E-01  7.50000000E-01  3.38650000E+01  5.09479000E+00  1.15879000E+00
  3.25840000E-01  1.02741000E-01  7.50000000E-01  3.38650000E+01  5.09479000E+00
  1.15879000E+00  3.25840000E-01  1.02741000E-01  7.50000000E-01  3.38650000E+01
  5.09479000E+00  1.15879000E+00  3.25840000E-01  1.02741000E-01  7.50000000E-01
  3.38650000E+01  5.09479000E+00  1.15879000E+00  3.25840000E-01  1.02741000E-01
  7.50000000E-01  3.38650000E+01  5.09479000E+00  1.15879000E+00  3.25840000E-01
  1.02741000E-01  7.50000000E-01  2.85889000E+03  4.28140000E+02  9.75282000E+01
  2.79693000E+01  8.21577000E+00  1.11278000E+00  1.32415000E+01  3.00166000E+00
  9.12856000E-01  3.15454000E-01  9.88563000E-02  4.01000000E-01  6.29348000E+03
  9.49044000E+02  2.18776000E+02  6.36916000E+01  1.88282000E+01  2.72023000E+00
  3.06331000E+01  7.02614000E+00  2.11205000E+00  6.84009000E-01  2.00878000E-01
  9.13000000E-01  4.56324000E+03  6.82024000E+02  1.54973000E+02  4.44553000E+01
  1.30290000E+01  1.82773000E+00  2.09642000E+01  4.80331000E+00  1.45933000E+00
  4.83456000E-01  1.45585000E-01  6.26000000E-01  4.56324000E+03  6.82024000E+02
  1.54973000E+02  4.44553000E+01  1.30290000E+01  1.82773000E+00  2.09642000E+01
  4.80331000E+00  1.45933000E+00  4.83456000E-01  1.45585000E-01  6.26000000E-01
  6.29348000E+03  9.49044000E+02  2.18776000E+02  6.36916000E+01  1.88282000E+01
  2.72023000E+00  3.06331000E+01  7.02614000E+00  2.11205000E+00  6.84009000E-01
  2.00878000E-01  9.13000000E-01  2.85889000E+03  4.28140000E+02  9.75282000E+01
  2.79693000E+01  8.21577000E+00  1.11278000E+00  1.32415000E+01  3.00166000E+00
  9.12856000E-01  3.15454000E-01  9.88563000E-02  4.01000000E-01
Contraction coefficients                   R   N=         144
  1.96665025E-03  1.52306019E-02  7.61269097E-02  2.60801033E-01  6.16462078E-01
  2.21006028E-01  1.14660081E-01  9.19999648E-01 -3.03068213E-03  1.00000000E+00
  1.00000000E+00  1.00000000E+00  1.96665025E-03  1.52306019E-02  7.61269097E-02
  2.60801033E-01  6.16462078E-01  2.21006028E-01  1.14660081E-01  9.19999648E-01
 -3.03068213E-03  1.00000000E+00  1.00000000E+00  1.00000000E+00  2.54938145E-02
  1.90373109E-01  8.52161486E-01  1.00000000E+00  1.00000000E+00  1.00000000E+00
  2.54938145E-02  1.90373109E-01  8.52161486E-01  1.00000000E+00  1.00000000E+00
  1.00000000E+00  2.54938145E-02  1.90373109E-01  8.52161486E-01  1.00000000E+00
  1.00000000E+00  1.00000000E+00  2.54938145E-02  1.90373109E-01  8.52161486E-01
  1.00000000E+00  1.00000000E+00  1.00000000E+00  2.54938145E-02  1.90373109E-01
  8.52161486E-01  1.00000000E+00  1.00000000E+00  1.00000000E+00  2.54938145E-02
  1.90373109E-01  8.52161486E-01  1.00000000E+00  1.00000000E+00  1.00000000E+00
  2.54938145E-02  1.90373109E-01  8.52161486E-01  1.00000000E+00  1.00000000E+00
  1.00000000E+00  2.54938145E-02  1.90373109E-01  8.52161486E-01  1.00000000E+00
  1.00000000E+00  1.00000000E+00  2.15374907E-03  1.65822928E-02  8.21869644E-02
  2.76617880E-01  6.29315727E-01  1.73769925E-01  1.17442942E-01  9.18001549E-01
 -2.65104870E-03  1.00000000E+00  1.00000000E+00  1.00000000E+00  1.96978815E-03
  1.49612859E-02  7.35005308E-02  2.48936766E-01  6.02459433E-01  2.56201759E-01
  1.11906080E-01  9.21666655E-01 -2.56919183E-03  1.00000000E+00  1.00000000E+00
  1.00000000E+00  1.96665025E-03  1.52306019E-02  7.61269097E-02  2.60801033E-01
  6.16462078E-01  2.21006028E-01  1.14660081E-01  9.19999648E-01 -3.03068213E-03
  1.00000000E+00  1.00000000E+00  1.00000000E+00  1.96665025E-03  1.52306019E-02
  7.61269097E-02  2.60801033E-01  6.16462078E-01  2.21006028E-01  1.14660081E-01
  9.19999648E-01 -3.03068213E-03  1.00000000E+00  1.00000000E+00  1.00000000E+00
  1.96978815E-03  1.49612859E-02  7.35005308E-02  2.48936766E-01  6.02459433E-01
  2.56201759E-01  1.11906080E-01  9.21666655E-01 -2.56919183E-03  1.00000000E+00
  1.00000000E+00  1.00000000E+00  2.15374907E-03  1.65822928E-02  8.21869644E-02
  2.76617880E-01  6.29315727E-01  1.73769925E-01  1.17442942E-01  9.18001549E-01
 -2.65104870E-03  1.00000000E+00  1.00000000E+00  1.00000000E+00
P(S=P) Contraction coefficients            R   N=         144
  0.00000000E+00  0.00000000E+00  0.00000000E+00  0.00000000E+00  0.00000000E+00
  0.00000000E+00  4.02486927E-02  2.37593957E-01  8.15853851E-01  1.00000000E+00
  1.00000000E+00  0.00000000E+00  0.00000000E+00  0.00000000E+00  0.00000000E+00
  0.00000000E+00  0.00000000E+00  0.00000000E+00  4.02486927E-02  2.37593957E-01
  8.15853851E-01  1.00000000E+00  1.00000000E+00  0.00000000E+00  0.00000000E+00
  0.00000000E+00  0.00000000E+00  0.00000000E+00  0.00000000E+00  0.00000000E+00
  0.00000000E+00  0.00000000E+00  0.00000000E+00  0.00000000E+00  0.00000000E+00
  0.00000000E+00  0.00000000E+00  0.00000000E+00  0.00000000E+00  0.00000000E+00
  0.00000000E+00  0.00000000E+00  0.00000000E+00  0.00000000E+00  0.00000000E+00
  0.00000000E+00  0.00000000E+00  0.00000000E+00  0.00000000E+00  0.00000000E+00
  0.00000000E+00  0.00000000E+00  0.00000000E+00  0.00000000E+00  0.00000000E+00
  0.00000000E+00  0.00000000E+00  0.00000000E+00  0.00000000E+00  0.00000000E+00
  0.00000000E+00  0.00000000E+00  0.00000000E+00  0.00000000E+00  0.00000000E+00
  0.00000000E+00  0.00000000E+00  0.00000000E+00  0.00000000E+00  0.00000000E+00
  0.00000000E+00  0.00000000E+00  0.00000000E+00  0.00000000E+00  0.00000000E+00
  0.00000000E+00  0.00000000E+00  0.00000000E+00  4.18099989E-02  2.36574994E-01
  8.16213978E-01  1.00000000E+00  1.00000000E+00  0.00000000E+00  0.00000000E+00
  0.00000000E+00  0.00000000E+00  0.00000000E+00  0.00000000E+00  0.00000000E+00
  3.83119186E-02  2.37403116E-01  8.17592398E-01  1.00000000E+00  1.00000000E+00
  0.00000000E+00  0.00000000E+00  0.00000000E+00  0.00000000E+00  0.00000000E+00
  0.00000000E+00  0.00000000E+00  4.02486927E-02  2.37593957E-01  8.15853851E-01
  1.00000000E+00  1.00000000E+00  0.00000000E+00  0.00000000E+00  0.00000000E+00
  0.00000000E+00  0.00000000E+00  0.00000000E+00  0.00000000E+00  4.02486927E-02
  2.37593957E-01  8.15853851E-01  1.00000000E+00  1.00000000E+00  0.00000000E+00
  0.00000000E+00  0.00000000E+00  0.00000000E+00  0.00000000E+00  0.00000000E+00
  0.00000000E+00  3.83119186E-02  2.37403116E-01  8.17592398E-01  1.00000000E+00
  1.00000000E+00  0.00000000E+00  0.00000000E+00  0.00000000E+00  0.00000000E+00
  0.00000000E+00  0.00000000E+00  0.00000000E+00  4.18099989E-02  2.36574994E-01
  8.16213978E-01  1.00000000E+00  1.00000000E+00  0.00000000E+00
Coordinates of each shell                  R   N=         216
  2.41907621E+00 -2.43242523E+00  0.00000000E+00  2.41907621E+00 -2.43242523E+00
  0.00000000E+00  2.41907621E+00 -2.43242523E+00  0.00000000E+00  2.41907621E+00
 -2.43242523E+00  0.00000000E+00  2.41907621E+00 -2.43242523E+00  0.00000000E+00
  3.45550217E+00  5.88611893E-02  0.00000000E+00  3.45550217E+00  5.88611893E-02
  0.00000000E+00  3.45550217E+00  5.88611893E-02  0.00000000E+00  3.45550217E+00
  5.88611893E-02  0.00000000E+00  3.45550217E+00  5.88611893E-02  0.00000000E+00
  3.82054245E+00 -3.92515013E+00  0.00000000E+00  3.82054245E+00 -3.92515013E+00
  0.00000000E+00  3.82054245E+00 -3.92515013E+00  0.00000000E+00  3.82054245E+00
 -3.92515013E+00  0.00000000E+00  2.77657459E-02 -5.24634459E+00  0.00000000E+00
  2.77657459E-02 -5.24634459E+00  0.00000000E+00  2.77657459E-02 -5.24634459E+00
  0.00000000E+00  2.77657459E-02 -5.24634459E+00  0.00000000E+00 -4.07340671E+00
 -4.16103520E+00  0.00000000E+00 -4.07340671E+00 -4.16103520E+00  0.00000000E+00
 -4.07340671E+00 -4.16103520E+00  0.00000000E+00 -4.07340671E+00 -4.16103520E+00
  0.00000000E+00 -5.45005140E+00 -8.26755179E-03  0.00000000E+00 -5.45005140E+00
 -8.26755179E-03  0.00000000E+00 -5.45005140E+00 -8.26755179E-03  0.00000000E+00
 -5.45005140E+00 -8.26755179E-03  0.00000000E+00 -4.26955839E+00  4.16879252E+00
  0.00000000E+00 -4.26955839E+00  4.16879252E+00  0.00000000E+00 -4.26955839E+00
  4.16879252E+00  0.00000000E+00 -4.26955839E+00  4.16879252E+00  0.00000000E+00
  1.51586271E-01  5.62540665E+00  0.00000000E+00  1.51586271E-01  5.62540665E+00
  0.00000000E+00  1.51586271E-01  5.62540665E+00  0.00000000E+00  1.51586271E-01
  5.62540665E+00  0.00000000E+00  4.07736946E+00  3.89264495E+00  0.00000000E+00
  4.07736946E+00  3.89264495E+00  0.00000000E+00  4.07736946E+00  3.89264495E+00
  0.00000000E+00  4.07736946E+00  3.89264495E+00  0.00000000E+00  5.50757277E+00
 -5.65840693E-02  0.00000000E+00  5.50757277E+00 -5.65840693E-02  0.00000000E+00
  5.50757277E+00 -5.65840693E-02  0.00000000E+00  5.50757277E+00 -5.65840693E-02
  0.00000000E+00 -2.57998072E+00 -2.46719808E+00  0.00000000E+00 -2.57998072E+00
 -2.46719808E+00  0.00000000E+00 -2.57998072E+00 -2.46719808E+00  0.00000000E+00
 -2.57998072E+00 -2.46719808E+00  0.00000000E+00 -2.57998072E+00 -2.46719808E+00
  0.00000000E+00  0.00000000E+00 -3.33577668E+00  0.00000000E+00  0.00000000E+00
 -3.33577668E+00  0.00000000E+00  0.00000000E+00 -3.33577668E+00  0.00000000E+00
  0.00000000E+00 -3.33577668E+00  0.00000000E+00  0.00000000E+00 -3.33577668E+00
  0.00000000E+00  2.56870850E+00  2.49885666E+00  0.00000000E+00  2.56870850E+00
  2.49885666E+00  0.00000000E+00  2.56870850E+00  2.49885666E+00  0.00000000E+00
  2.56870850E+00  2.49885666E+00  0.00000000E+00  2.56870850E+00  2.49885666E+00
  0.00000000E+00  6.74688918E-02  3.56737962E+00  0.00000000E+00  6.74688918E-02
  3.56737962E+00  0.00000000E+00  6.74688918E-02  3.56737962E+00  0.00000000E+00
  6.74688918E-02  3.56737962E+00  0.00000000E+00  6.74688918E-02  3.56737962E+00
  0.00000000E+00 -3.53691346E+00  3.71841410E-02  0.00000000E+00 -3.53691346E+00
  3.71841410E-02  0.00000000E+00 -3.53691346E+00  3.71841410E-02  0.00000000E+00
 -3.53691346E+00  3.71841410E-02  0.00000000E+00 -3.53691346E+00  3.71841410E-02
  0.00000000E+00 -2.63961291E+00  2.59612843E+00  0.00000000E+00 -2.63961291E+00
  2.59612843E+00  0.00000000E+00 -2.63961291E+00  2.59612843E+00  0.00000000E+00
 -2.63961291E+00  2.59612843E+00  0.00000000E+00 -2.63961291E+00  2.59612843E+00
  0.00000000E+00
Num ILSW                                   I              100
ILSW                                       I   N=         100
           1           0           0           0           2           0
           0           0           0           0         402          -1
           5           0           0           0           0           0
           0           0           0           0           0           0
           1           1           0           0           0           0
           0           0      100000           0          -1           0
           0           0           0           0           0           0
           0           0           0           1           0           0
           0 -2000000000           1           0           0           0
           0           0           4          52           0           0
           0           0           5           0           0           0
           0           0           0          16           0           1
           0           0           0           0           0           0
           0           0           0           0           0           0
           0           0           0           0           0           0
           0           0           0           0           0           0
           0           0           0           0
Num RLSW                                   I               52
RLSW                                       R   N=          52
  8.00000000E-01  7.20000000E-01  1.00000000E+00  8.10000000E-01  2.00000000E-01
  0.00000000E+00  0.00000000E+00  1.00000000E+00  0.00000000E+00  0.00000000E+00
  0.00000000E+00  0.00000000E+00  1.00000000E+00  0.00000000E+00  0.00000000E+00
  0.00000000E+00  0.00000000E+00  1.00000000E+00  0.00000000E+00  0.00000000E+00
  0.00000000E+00  0.00000000E+00  1.00000000E+00  0.00000000E+00  0.00000000E+00
  0.00000000E+00  0.00000000E+00  1.00000000E+00  0.00000000E+00  0.00000000E+00
  0.00000000E+00  0.00000000E+00  1.00000000E+00  0.00000000E+00  0.00000000E+00
  0.00000000E+00  0.00000000E+00  0.00000000E+00  1.00000000E+00  1.00000000E+00
  0.00000000E+00  1.00000000E+00  0.00000000E+00  0.00000000E+00  0.00000000E+00
  0.00000000E+00  0.00000000E+00  0.00000000E+00  0.00000000E+00  0.00000000E+00
  0.00000000E+00  0.00000000E+00
MxBond                                     I                3
NBond                                      I   N=          16
           3           3           1           1           1           1
           1           1           1           1           3           3
           3           3           3           3
IBond                                      I   N=          48
           2           3          12           1          10          13
           1           0           0          12           0           0
          11           0           0          15           0           0
          16           0           0          14           0           0
          13           0           0           2           0           0
           5          12          15           1           4          11
           2           9          14           8          13          16
           6          11          16           7          14          15
RBond                                      R   N=          48
  1.50000000E+00  1.00000000E+00  1.50000000E+00  1.50000000E+00  1.00000000E+00
  1.50000000E+00  1.00000000E+00  0.00000000E+00  0.00000000E+00  1.00000000E+00
  0.00000000E+00  0.00000000E+00  1.00000000E+00  0.00000000E+00  0.00000000E+00
  1.00000000E+00  0.00000000E+00  0.00000000E+00  1.00000000E+00  0.00000000E+00
  0.00000000E+00  1.00000000E+00  0.00000000E+00  0.00000000E+00  1.00000000E+00
  0.00000000E+00  0.00000000E+00  1.00000000E+00  0.00000000E+00  0.00000000E+00
  1.00000000E+00  1.00000000E+00  1.00000000E+00  1.50000000E+00  1.00000000E+00
  1.00000000E+00  1.50000000E+00  1.00000000E+00  1.00000000E+00  1.00000000E+00
  1.00000000E+00  1.00000000E+00  1.00000000E+00  1.00000000E+00  1.00000000E+00
  1.00000000E+00  1.00000000E+00  1.00000000E+00
Virial Ratio                               R      2.004335499498007E+00
SCF Energy                                 R     -3.165474032538813E+02
Total Energy                               R     -3.165474032538813E+02
S**2                                       R      2.005453806516712E+00
S**2 after annihilation                    R      2.000017731921169E+00
RMS Density                                R      3.804699932321397E-09
Job Status                                 I                1
Nuclear derivative order                   I                0
External E-field                           R   N=          35
  0.00000000E+00  0.00000000E+00  0.00000000E+00  0.00000000E+00  0.00000000E+00
  0.00000000E+00  0.00000000E+00  0.00000000E+00  0.00000000E+00  0.00000000E+00
  0.00000000E+00  0.00000000E+00  0.00000000E+00  0.00000000E+00  0.00000000E+00
  0.00000000E+00  0.00000000E+00  0.00000000E+00  0.00000000E+00  0.00000000E+00
  0.00000000E+00  0.00000000E+00  0.00000000E+00  0.00000000E+00  0.00000000E+00
  0.00000000E+00  0.00000000E+00  0.00000000E+00  0.00000000E+00  0.00000000E+00
  0.00000000E+00  0.00000000E+00  0.00000000E+00  0.00000000E+00  0.00000000E+00
IOpCl                                      I                1
IROHF                                      I                0
Alpha Orbital Energies                     R   N=         192
 -1.43522831E+01 -1.43021215E+01 -1.02252151E+01 -1.01930861E+01 -1.01746872E+01
 -1.01682518E+01 -6.75002497E+00 -6.71568764E+00 -9.42623455E-01 -8.64112015E-01
 -8.04967230E-01 -7.28400273E-01 -6.53429038E-01 -5.74697133E-01 -5.53535729E-01
 -5.31049580E-01 -4.78451267E-01 -4.68567763E-01 -4.61865506E-01 -4.12245563E-01
 -4.04804143E-01 -3.82640679E-01 -3.58199458E-01 -3.34714853E-01 -3.30208073E-01
 -3.27621810E-01 -3.11038309E-01 -2.28443965E-01 -1.51546585E-01  1.53888966E-02
  2.16756807E-02  2.95624037E-02  5.24717630E-02  5.79452509E-02  8.96665670E-02
  1.10679684E-01  1.15229707E-01  1.25188207E-01  1.36601841E-01  1.51976888E-01
  1.96223502E-01  2.21471252E-01  2.31570476E-01  2.38021118E-01  2.51653184E-01
  2.64999960E-01  2.82522965E-01  2.92839058E-01  3.12583603E-01  3.26257567E-01
  3.28140175E-01  3.47034998E-01  3.58227131E-01  3.94039307E-01  3.95884693E-01
  4.07696900E-01  4.18677854E-01  4.38278835E-01  4.45965678E-01  4.59273438E-01
  4.94894372E-01  5.10386150E-01  5.15106883E-01  5.21373154E-01  5.66158444E-01
  5.79433972E-01  5.84126466E-01  5.95659022E-01  6.10424058E-01  6.35211218E-01
  6.55901534E-01  6.73233027E-01  6.79290032E-01  6.90857951E-01  7.41918764E-01
  7.43018696E-01  7.53180198E-01  7.66882417E-01  7.93679640E-01  7.95879282E-01
  8.18337860E-01  8.34431167E-01  8.39186640E-01  8.55522766E-01  8.68582382E-01
  9.08501522E-01  9.74333313E-01  9.84647406E-01  1.01820594E+00  1.03130854E+00
  1.05507395E+00  1.07249865E+00  1.08583720E+00  1.08606528E+00  1.11037518E+00
  1.18082351E+00  1.18095964E+00  1.20994608E+00  1.28370760E+00  1.29148280E+00
  1.38414993E+00  1.40255214E+00  1.41986686E+00  1.44049813E+00  1.44385313E+00
  1.47968274E+00  1.48642999E+00  1.52698728E+00  1.55248283E+00  1.56553134E+00
  1.61570405E+00  1.65294053E+00  1.67184388E+00  1.69061748E+00  1.71628547E+00
  1.72782091E+00  1.73347311E+00  1.73950062E+00  1.75162444E+00  1.80277973E+00
  1.81914277E+00  1.83875488E+00  1.87135129E+00  1.87664027E+00  1.88649570E+00
  1.91624047E+00  1.92582042E+00  1.93789511E+00  1.94009980E+00  1.97095893E+00
  1.99232459E+00  2.02784792E+00  2.06192689E+00  2.13051293E+00  2.15732533E+00
  2.17227460E+00  2.21283895E+00  2.23851372E+00  2.32213846E+00  2.36042467E+00
  2.37917379E+00  2.38013391E+00  2.40339601E+00  2.44915472E+00  2.45656764E+00
  2.50110791E+00  2.51566617E+00  2.52477036E+00  2.55318387E+00  2.55481818E+00
  2.60416973E+00  2.63536033E+00  2.66461738E+00  2.66467436E+00  2.66707481E+00
  2.70212429E+00  2.72049628E+00  2.74823455E+00  2.74907386E+00  2.79824658E+00
  2.79946640E+00  2.80678206E+00  2.82956428E+00  2.89236993E+00  2.89277862E+00
  2.92736875E+00  2.98655551E+00  3.04403802E+00  3.14780660E+00  3.18825973E+00
  3.31482212E+00  3.35735381E+00  3.43055819E+00  3.60906651E+00  3.70225515E+00
  3.74549329E+00  3.79212440E+00  3.95917761E+00  3.96755879E+00  4.33568064E+00
  4.49302717E+00  4.70117964E+00  4.74809058E+00  4.99491245E+00  1.46940748E+01
  1.48015406E+01  2.36322842E+01  2.38762008E+01  2.39418345E+01  2.41915887E+01
  3.55498866E+01  3.55635178E+01
Beta Orbital Energies                      R   N=         192
 -1.43497171E+01 -1.43006447E+01 -1.02171974E+01 -1.01904700E+01 -1.01715691E+01
 -1.01599355E+01 -6.74850295E+00 -6.71413122E+00 -9.33048612E-01 -8.59530489E-01
 -7.90344821E-01 -7.07503506E-01 -6.36424505E-01 -5.65325589E-01 -5.49374930E-01
 -5.24997506E-01 -4.75413717E-01 -4.63875282E-01 -4.55518278E-01 -4.06660377E-01
 -3.77288872E-01 -3.72448165E-01 -3.54352607E-01 -3.30671022E-01 -3.06640206E-01
 -3.05677341E-01 -2.87071221E-01 -1.34701124E-01 -6.70892233E-02  1.68637321E-02
  5.36803177E-02  5.58118616E-02  5.86287404E-02  6.29199814E-02  9.12915244E-02
  1.13358311E-01  1.28586493E-01  1.39614548E-01  1.49004785E-01  1.56703645E-01
  1.97734827E-01  2.23986904E-01  2.35782650E-01  2.47814151E-01  2.57395450E-01
  2.73087719E-01  2.95537464E-01  2.97789595E-01  3.16617850E-01  3.32474785E-01