Title Card Required                                                     
SP        RB3LYP                                                      6-311G(d,p)         
Number of atoms                            I               16
Info1-9                                    I   N=           9
          23          23           0           0           0         110
           1          18        -502
Full Title                                 C   N=           2
Title Card Required     
Route                                      C   N=           5
#p b3lyp/6-311g(d,p) nosymm pop=nbo density=current         
Charge                                     I                0
Multiplicity                               I                1
Number of electrons                        I               56
Number of alpha electrons                  I               28
Number of beta electrons                   I               28
Number of basis functions                  I              192
Number of independent functions            I              192
Number of point charges in /Mol/           I                0
Number of translation vectors              I                0
Atomic numbers                             I   N=          16
           6           6           1           1           1           1
           1           1           1           1           5           7
           6           6           7           5
Nuclear charges                            R   N=          16
  6.00000000E+00  6.00000000E+00  1.00000000E+00  1.00000000E+00  1.00000000E+00
  1.00000000E+00  1.00000000E+00  1.00000000E+00  1.00000000E+00  1.00000000E+00
  5.00000000E+00  7.00000000E+00  6.00000000E+00  6.00000000E+00  7.00000000E+00
  5.00000000E+00
Current cartesian coordinates              R   N=          48
  1.31496970E+00 -2.95186370E+00  5.39624523E-01  3.04188458E+00 -1.11061661E+00
  7.09410746E-01  1.75767773E+00 -4.75693954E+00  1.41741365E+00 -1.45256633E+00
 -4.65205974E+00 -1.45469605E+00 -5.09061982E+00 -2.12419389E+00 -1.33649368E+00
 -4.89057531E+00  1.68385558E+00  1.23867579E+00 -2.09930242E+00  5.15567742E+00
  1.43113306E+00  1.81063542E+00  4.86290405E+00 -1.64284474E+00  4.95495072E+00
  1.84243951E+00 -1.27622087E+00  4.74534418E+00 -1.61792493E+00  1.74093287E+00
 -3.14108009E+00 -1.30532454E+00 -5.37194335E-01 -1.04132791E+00 -2.94349032E+00
 -7.06532693E-01  3.10095175E+00  1.37713791E+00 -5.03322884E-01  1.26660783E+00
  3.12235857E+00 -6.80737932E-01 -3.15483540E+00  1.17094234E+00  6.18427992E-01
 -1.40069902E+00  3.18372176E+00  5.58994216E-01
Number of symbols in /Mol/                 I                0
Force Field                                I                0
Atom Types                                 C   N=          16
                                                            
                                                            
                                                            
            
Int Atom Types                             I   N=          16
           0           0           0           0           0           0
           0           0           0           0           0           0
           0           0           0           0
MM charges                                 R   N=          16
  0.00000000E+00  0.00000000E+00  0.00000000E+00  0.00000000E+00  0.00000000E+00
  0.00000000E+00  0.00000000E+00  0.00000000E+00  0.00000000E+00  0.00000000E+00
  0.00000000E+00  0.00000000E+00  0.00000000E+00  0.00000000E+00  0.00000000E+00
  0.00000000E+00
Integer atomic weights                     I   N=          16
          12          12           1           1           1           1
           1           1           1           1          11          14
          12          12          14          11
Real atomic weights                        R   N=          16
  1.20000000E+01  1.20000000E+01  1.00782504E+00  1.00782504E+00  1.00782504E+00
  1.00782504E+00  1.00782504E+00  1.00782504E+00  1.00782504E+00  1.00782504E+00
  1.10093053E+01  1.40030740E+01  1.20000000E+01  1.20000000E+01  1.40030740E+01
  1.10093053E+01
Atom fragment info                         I   N=          16
           0           0           0           0           0           0
           0           0           0           0           0           0
           0           0           0           0
Atom residue num                           I   N=          16
           0           0           0           0           0           0
           0           0           0           0           0           0
           0           0           0           0
Nuclear spins                              I   N=          16
           0           0           1           1           1           1
           1           1           1           1           3           2
           0           0           2           3
Nuclear ZEff                               R   N=          16
 -3.60000000E+00 -3.60000000E+00 -1.00000000E+00 -1.00000000E+00 -1.00000000E+00
 -1.00000000E+00 -1.00000000E+00 -1.00000000E+00 -1.00000000E+00 -1.00000000E+00
 -2.75000000E+00 -4.55000000E+00 -3.60000000E+00 -3.60000000E+00 -4.55000000E+00
 -2.75000000E+00
Nuclear ZNuc                               R   N=          16
  6.00000000E+00  6.00000000E+00  1.00000000E+00  1.00000000E+00  1.00000000E+00
  1.00000000E+00  1.00000000E+00  1.00000000E+00  1.00000000E+00  1.00000000E+00
  5.00000000E+00  7.00000000E+00  6.00000000E+00  6.00000000E+00  7.00000000E+00
  5.00000000E+00
Nuclear QMom                               R   N=          16
  0.00000000E+00  0.00000000E+00  0.00000000E+00  0.00000000E+00  0.00000000E+00
  0.00000000E+00  0.00000000E+00  0.00000000E+00  0.00000000E+00  0.00000000E+00
  4.05900000E+00  2.04400000E+00  0.00000000E+00  0.00000000E+00  2.04400000E+00
  4.05900000E+00
Nuclear GFac                               R   N=          16
  0.00000000E+00  0.00000000E+00  2.79284600E+00  2.79284600E+00  2.79284600E+00
  2.79284600E+00  2.79284600E+00  2.79284600E+00  2.79284600E+00  2.79284600E+00
  2.68863700E+00  4.03761000E-01  0.00000000E+00  0.00000000E+00  4.03761000E-01
  2.68863700E+00
MicOpt                                     I   N=          16
          -1          -1          -1          -1          -1          -1
          -1          -1          -1          -1          -1          -1
          -1          -1          -1          -1
Number of residues                         I                0
Number of secondary structures             I                0
Number of contracted shells                I               72
Number of primitive shells                 I              144
Pure/Cartesian d shells                    I                0
Pure/Cartesian f shells                    I                0
Highest angular momentum                   I                2
Largest degree of contraction              I                6
Shell types                                I   N=          72
           0          -1          -1          -1          -2           0
          -1          -1          -1          -2           0           0
           0           1           0           0           0           1
           0           0           0           1           0           0
           0           1           0           0           0           1
           0           0           0           1           0           0
           0           1           0           0           0           1
           0          -1          -1          -1          -2           0
          -1          -1          -1          -2           0          -1
          -1          -1          -2           0          -1          -1
          -1          -2           0          -1          -1          -1
          -2           0          -1          -1          -1          -2
Number of primitives per shell             I   N=          72
           6           3           1           1           1           6
           3           1           1           1           3           1
           1           1           3           1           1           1
           3           1           1           1           3           1
           1           1           3           1           1           1
           3           1           1           1           3           1
           1           1           3           1           1           1
           6           3           1           1           1           6
           3           1           1           1           6           3
           1           1           1           6           3           1
           1           1           6           3           1           1
           1           6           3           1           1           1
Shell to atom map                          I   N=          72
           1           1           1           1           1           2
           2           2           2           2           3           3
           3           3           4           4           4           4
           5           5           5           5           6           6
           6           6           7           7           7           7
           8           8           8           8           9           9
           9           9          10          10          10          10
          11          11          11          11          11          12
          12          12          12          12          13          13
          13          13          13          14          14          14
          14          14          15          15          15          15
          15          16          16          16          16          16
Primitive exponents                        R   N=         144
  4.56324000E+03  6.82024000E+02  1.54973000E+02  4.44553000E+01  1.30290000E+01
  1.82773000E+00  2.09642000E+01  4.80331000E+00  1.45933000E+00  4.83456000E-01
  1.45585000E-01  6.26000000E-01  4.56324000E+03  6.82024000E+02  1.54973000E+02
  4.44553000E+01  1.30290000E+01  1.82773000E+00  2.09642000E+01  4.80331000E+00
  1.45933000E+00  4.83456000E-01  1.45585000E-01  6.26000000E-01  3.38650000E+01
  5.09479000E+00  1.15879000E+00  3.25840000E-01  1.02741000E-01  7.50000000E-01
  3.38650000E+01  5.09479000E+00  1.15879000E+00  3.25840000E-01  1.02741000E-01
  7.50000000E-01  3.38650000E+01  5.09479000E+00  1.15879000E+00  3.25840000E-01
  1.02741000E-01  7.50000000E-01  3.38650000E+01  5.09479000E+00  1.15879000E+00
  3.25840000E-01  1.02741000E-01  7.50000000E-01  3.38650000E+01  5.09479000E+00
  1.15879000E+00  3.25840000E-01  1.02741000E-01  7.50000000E-01  3.38650000E+01
  5.09479000E+00  1.15879000E+00  3.25840000E-01  1.02741000E-01  7.50000000E-01
  3.38650000E+01  5.09479000E+00  1.15879000E+00  3.25840000E-01  1.02741000E-01
  7.50000000E-01  3.38650000E+01  5.09479000E+00  1.15879000E+00  3.25840000E-01
  1.02741000E-01  7.50000000E-01  2.85889000E+03  4.28140000E+02  9.75282000E+01
  2.79693000E+01  8.21577000E+00  1.11278000E+00  1.32415000E+01  3.00166000E+00
  9.12856000E-01  3.15454000E-01  9.88563000E-02  4.01000000E-01  6.29348000E+03
  9.49044000E+02  2.18776000E+02  6.36916000E+01  1.88282000E+01  2.72023000E+00
  3.06331000E+01  7.02614000E+00  2.11205000E+00  6.84009000E-01  2.00878000E-01
  9.13000000E-01  4.56324000E+03  6.82024000E+02  1.54973000E+02  4.44553000E+01
  1.30290000E+01  1.82773000E+00  2.09642000E+01  4.80331000E+00  1.45933000E+00
  4.83456000E-01  1.45585000E-01  6.26000000E-01  4.56324000E+03  6.82024000E+02
  1.54973000E+02  4.44553000E+01  1.30290000E+01  1.82773000E+00  2.09642000E+01
  4.80331000E+00  1.45933000E+00  4.83456000E-01  1.45585000E-01  6.26000000E-01
  6.29348000E+03  9.49044000E+02  2.18776000E+02  6.36916000E+01  1.88282000E+01
  2.72023000E+00  3.06331000E+01  7.02614000E+00  2.11205000E+00  6.84009000E-01
  2.00878000E-01  9.13000000E-01  2.85889000E+03  4.28140000E+02  9.75282000E+01
  2.79693000E+01  8.21577000E+00  1.11278000E+00  1.32415000E+01  3.00166000E+00
  9.12856000E-01  3.15454000E-01  9.88563000E-02  4.01000000E-01
Contraction coefficients                   R   N=         144
  1.96665025E-03  1.52306019E-02  7.61269097E-02  2.60801033E-01  6.16462078E-01
  2.21006028E-01  1.14660081E-01  9.19999648E-01 -3.03068213E-03  1.00000000E+00
  1.00000000E+00  1.00000000E+00  1.96665025E-03  1.52306019E-02  7.61269097E-02
  2.60801033E-01  6.16462078E-01  2.21006028E-01  1.14660081E-01  9.19999648E-01
 -3.03068213E-03  1.00000000E+00  1.00000000E+00  1.00000000E+00  2.54938145E-02
  1.90373109E-01  8.52161486E-01  1.00000000E+00  1.00000000E+00  1.00000000E+00
  2.54938145E-02  1.90373109E-01  8.52161486E-01  1.00000000E+00  1.00000000E+00
  1.00000000E+00  2.54938145E-02  1.90373109E-01  8.52161486E-01  1.00000000E+00
  1.00000000E+00  1.00000000E+00  2.54938145E-02  1.90373109E-01  8.52161486E-01
  1.00000000E+00  1.00000000E+00  1.00000000E+00  2.54938145E-02  1.90373109E-01
  8.52161486E-01  1.00000000E+00  1.00000000E+00  1.00000000E+00  2.54938145E-02
  1.90373109E-01  8.52161486E-01  1.00000000E+00  1.00000000E+00  1.00000000E+00
  2.54938145E-02  1.90373109E-01  8.52161486E-01  1.00000000E+00  1.00000000E+00
  1.00000000E+00  2.54938145E-02  1.90373109E-01  8.52161486E-01  1.00000000E+00
  1.00000000E+00  1.00000000E+00  2.15374907E-03  1.65822928E-02  8.21869644E-02
  2.76617880E-01  6.29315727E-01  1.73769925E-01  1.17442942E-01  9.18001549E-01
 -2.65104870E-03  1.00000000E+00  1.00000000E+00  1.00000000E+00  1.96978815E-03
  1.49612859E-02  7.35005308E-02  2.48936766E-01  6.02459433E-01  2.56201759E-01
  1.11906080E-01  9.21666655E-01 -2.56919183E-03  1.00000000E+00  1.00000000E+00
  1.00000000E+00  1.96665025E-03  1.52306019E-02  7.61269097E-02  2.60801033E-01
  6.16462078E-01  2.21006028E-01  1.14660081E-01  9.19999648E-01 -3.03068213E-03
  1.00000000E+00  1.00000000E+00  1.00000000E+00  1.96665025E-03  1.52306019E-02
  7.61269097E-02  2.60801033E-01  6.16462078E-01  2.21006028E-01  1.14660081E-01
  9.19999648E-01 -3.03068213E-03  1.00000000E+00  1.00000000E+00  1.00000000E+00
  1.96978815E-03  1.49612859E-02  7.35005308E-02  2.48936766E-01  6.02459433E-01
  2.56201759E-01  1.11906080E-01  9.21666655E-01 -2.56919183E-03  1.00000000E+00
  1.00000000E+00  1.00000000E+00  2.15374907E-03  1.65822928E-02  8.21869644E-02
  2.76617880E-01  6.29315727E-01  1.73769925E-01  1.17442942E-01  9.18001549E-01
 -2.65104870E-03  1.00000000E+00  1.00000000E+00  1.00000000E+00
P(S=P) Contraction coefficients            R   N=         144
  0.00000000E+00  0.00000000E+00  0.00000000E+00  0.00000000E+00  0.00000000E+00
  0.00000000E+00  4.02486927E-02  2.37593957E-01  8.15853851E-01  1.00000000E+00
  1.00000000E+00  0.00000000E+00  0.00000000E+00  0.00000000E+00  0.00000000E+00
  0.00000000E+00  0.00000000E+00  0.00000000E+00  4.02486927E-02  2.37593957E-01
  8.15853851E-01  1.00000000E+00  1.00000000E+00  0.00000000E+00  0.00000000E+00
  0.00000000E+00  0.00000000E+00  0.00000000E+00  0.00000000E+00  0.00000000E+00
  0.00000000E+00  0.00000000E+00  0.00000000E+00  0.00000000E+00  0.00000000E+00
  0.00000000E+00  0.00000000E+00  0.00000000E+00  0.00000000E+00  0.00000000E+00
  0.00000000E+00  0.00000000E+00  0.00000000E+00  0.00000000E+00  0.00000000E+00
  0.00000000E+00  0.00000000E+00  0.00000000E+00  0.00000000E+00  0.00000000E+00
  0.00000000E+00  0.00000000E+00  0.00000000E+00  0.00000000E+00  0.00000000E+00
  0.00000000E+00  0.00000000E+00  0.00000000E+00  0.00000000E+00  0.00000000E+00
  0.00000000E+00  0.00000000E+00  0.00000000E+00  0.00000000E+00  0.00000000E+00
  0.00000000E+00  0.00000000E+00  0.00000000E+00  0.00000000E+00  0.00000000E+00
  0.00000000E+00  0.00000000E+00  0.00000000E+00  0.00000000E+00  0.00000000E+00
  0.00000000E+00  0.00000000E+00  0.00000000E+00  4.18099989E-02  2.36574994E-01
  8.16213978E-01  1.00000000E+00  1.00000000E+00  0.00000000E+00  0.00000000E+00
  0.00000000E+00  0.00000000E+00  0.00000000E+00  0.00000000E+00  0.00000000E+00
  3.83119186E-02  2.37403116E-01  8.17592398E-01  1.00000000E+00  1.00000000E+00
  0.00000000E+00  0.00000000E+00  0.00000000E+00  0.00000000E+00  0.00000000E+00
  0.00000000E+00  0.00000000E+00  4.02486927E-02  2.37593957E-01  8.15853851E-01
  1.00000000E+00  1.00000000E+00  0.00000000E+00  0.00000000E+00  0.00000000E+00
  0.00000000E+00  0.00000000E+00  0.00000000E+00  0.00000000E+00  4.02486927E-02
  2.37593957E-01  8.15853851E-01  1.00000000E+00  1.00000000E+00  0.00000000E+00
  0.00000000E+00  0.00000000E+00  0.00000000E+00  0.00000000E+00  0.00000000E+00
  0.00000000E+00  3.83119186E-02  2.37403116E-01  8.17592398E-01  1.00000000E+00
  1.00000000E+00  0.00000000E+00  0.00000000E+00  0.00000000E+00  0.00000000E+00
  0.00000000E+00  0.00000000E+00  0.00000000E+00  4.18099989E-02  2.36574994E-01
  8.16213978E-01  1.00000000E+00  1.00000000E+00  0.00000000E+00
Coordinates of each shell                  R   N=         216
  1.31496970E+00 -2.95186370E+00  5.39624523E-01  1.31496970E+00 -2.95186370E+00
  5.39624523E-01  1.31496970E+00 -2.95186370E+00  5.39624523E-01  1.31496970E+00
 -2.95186370E+00  5.39624523E-01  1.31496970E+00 -2.95186370E+00  5.39624523E-01
  3.04188458E+00 -1.11061661E+00  7.09410746E-01  3.04188458E+00 -1.11061661E+00
  7.09410746E-01  3.04188458E+00 -1.11061661E+00  7.09410746E-01  3.04188458E+00
 -1.11061661E+00  7.09410746E-01  3.04188458E+00 -1.11061661E+00  7.09410746E-01
  1.75767773E+00 -4.75693954E+00  1.41741365E+00  1.75767773E+00 -4.75693954E+00
  1.41741365E+00  1.75767773E+00 -4.75693954E+00  1.41741365E+00  1.75767773E+00
 -4.75693954E+00  1.41741365E+00 -1.45256633E+00 -4.65205974E+00 -1.45469605E+00
 -1.45256633E+00 -4.65205974E+00 -1.45469605E+00 -1.45256633E+00 -4.65205974E+00
 -1.45469605E+00 -1.45256633E+00 -4.65205974E+00 -1.45469605E+00 -5.09061982E+00
 -2.12419389E+00 -1.33649368E+00 -5.09061982E+00 -2.12419389E+00 -1.33649368E+00
 -5.09061982E+00 -2.12419389E+00 -1.33649368E+00 -5.09061982E+00 -2.12419389E+00
 -1.33649368E+00 -4.89057531E+00  1.68385558E+00  1.23867579E+00 -4.89057531E+00
  1.68385558E+00  1.23867579E+00 -4.89057531E+00  1.68385558E+00  1.23867579E+00
 -4.89057531E+00  1.68385558E+00  1.23867579E+00 -2.09930242E+00  5.15567742E+00
  1.43113306E+00 -2.09930242E+00  5.15567742E+00  1.43113306E+00 -2.09930242E+00
  5.15567742E+00  1.43113306E+00 -2.09930242E+00  5.15567742E+00  1.43113306E+00
  1.81063542E+00  4.86290405E+00 -1.64284474E+00  1.81063542E+00  4.86290405E+00
 -1.64284474E+00  1.81063542E+00  4.86290405E+00 -1.64284474E+00  1.81063542E+00
  4.86290405E+00 -1.64284474E+00  4.95495072E+00  1.84243951E+00 -1.27622087E+00
  4.95495072E+00  1.84243951E+00 -1.27622087E+00  4.95495072E+00  1.84243951E+00
 -1.27622087E+00  4.95495072E+00  1.84243951E+00 -1.27622087E+00  4.74534418E+00
 -1.61792493E+00  1.74093287E+00  4.74534418E+00 -1.61792493E+00  1.74093287E+00
  4.74534418E+00 -1.61792493E+00  1.74093287E+00  4.74534418E+00 -1.61792493E+00
  1.74093287E+00 -3.14108009E+00 -1.30532454E+00 -5.37194335E-01 -3.14108009E+00
 -1.30532454E+00 -5.37194335E-01 -3.14108009E+00 -1.30532454E+00 -5.37194335E-01
 -3.14108009E+00 -1.30532454E+00 -5.37194335E-01 -3.14108009E+00 -1.30532454E+00
 -5.37194335E-01 -1.04132791E+00 -2.94349032E+00 -7.06532693E-01 -1.04132791E+00
 -2.94349032E+00 -7.06532693E-01 -1.04132791E+00 -2.94349032E+00 -7.06532693E-01
 -1.04132791E+00 -2.94349032E+00 -7.06532693E-01 -1.04132791E+00 -2.94349032E+00
 -7.06532693E-01  3.10095175E+00  1.37713791E+00 -5.03322884E-01  3.10095175E+00
  1.37713791E+00 -5.03322884E-01  3.10095175E+00  1.37713791E+00 -5.03322884E-01
  3.10095175E+00  1.37713791E+00 -5.03322884E-01  3.10095175E+00  1.37713791E+00
 -5.03322884E-01  1.26660783E+00  3.12235857E+00 -6.80737932E-01  1.26660783E+00
  3.12235857E+00 -6.80737932E-01  1.26660783E+00  3.12235857E+00 -6.80737932E-01
  1.26660783E+00  3.12235857E+00 -6.80737932E-01  1.26660783E+00  3.12235857E+00
 -6.80737932E-01 -3.15483540E+00  1.17094234E+00  6.18427992E-01 -3.15483540E+00
  1.17094234E+00  6.18427992E-01 -3.15483540E+00  1.17094234E+00  6.18427992E-01
 -3.15483540E+00  1.17094234E+00  6.18427992E-01 -3.15483540E+00  1.17094234E+00
  6.18427992E-01 -1.40069902E+00  3.18372176E+00  5.58994216E-01 -1.40069902E+00
  3.18372176E+00  5.58994216E-01 -1.40069902E+00  3.18372176E+00  5.58994216E-01
 -1.40069902E+00  3.18372176E+00  5.58994216E-01 -1.40069902E+00  3.18372176E+00
  5.58994216E-01
Num ILSW                                   I              100
ILSW                                       I   N=         100
           0           0           0           0           2           0
           0           0           0           0         402          -1
           5           0           0           0           0           0
           0           0           0           0           0           0
           1           1           0           0           0           0
           0           0      100000           0          -1           0
           0           0           0           0           0           0
           0           0           0           1           0           0
           0 -2000000000           1           0           0           0
           0           0           4          52           0           0
           0           0           5           0           0           0
           0           0           0          16           0           1
           0           0           0           0           0           0
           0           0           0           0           0           0
           0           0           0           0           0           0
           0           0           0           0           0           0
           0           0           0           0
Num RLSW                                   I               52
RLSW                                       R   N=          52
  8.00000000E-01  7.20000000E-01  1.00000000E+00  8.10000000E-01  2.00000000E-01
  0.00000000E+00  0.00000000E+00  1.00000000E+00  0.00000000E+00  0.00000000E+00
  0.00000000E+00  0.00000000E+00  1.00000000E+00  0.00000000E+00  0.00000000E+00
  0.00000000E+00  0.00000000E+00  1.00000000E+00  0.00000000E+00  0.00000000E+00
  0.00000000E+00  0.00000000E+00  1.00000000E+00  0.00000000E+00  0.00000000E+00
  0.00000000E+00  0.00000000E+00  1.00000000E+00  0.00000000E+00  0.00000000E+00
  0.00000000E+00  0.00000000E+00  1.00000000E+00  0.00000000E+00  0.00000000E+00
  0.00000000E+00  0.00000000E+00  0.00000000E+00  1.00000000E+00  1.00000000E+00
  0.00000000E+00  1.00000000E+00  0.00000000E+00  0.00000000E+00  0.00000000E+00
  0.00000000E+00  0.00000000E+00  0.00000000E+00  0.00000000E+00  0.00000000E+00
  0.00000000E+00  0.00000000E+00
MxBond                                     I                3
NBond                                      I   N=          16
           3           3           1           1           1           1
           1           1           1           1           3           3
           3           3           3           3
IBond                                      I   N=          48
           2           3          12           1          10          13
           1           0           0          12           0           0
          11           0           0          15           0           0
          16           0           0          14           0           0
          13           0           0           2           0           0
           5          12          15           1           4          11
           2           9          14           8          13          16
           6          11          16           7          14          15
RBond                                      R   N=          48
  2.00000000E+00  1.00000000E+00  1.00000000E+00  2.00000000E+00  1.00000000E+00
  1.00000000E+00  1.00000000E+00  0.00000000E+00  0.00000000E+00  1.00000000E+00
  0.00000000E+00  0.00000000E+00  1.00000000E+00  0.00000000E+00  0.00000000E+00
  1.00000000E+00  0.00000000E+00  0.00000000E+00  1.00000000E+00  0.00000000E+00
  0.00000000E+00  1.00000000E+00  0.00000000E+00  0.00000000E+00  1.00000000E+00
  0.00000000E+00  0.00000000E+00  1.00000000E+00  0.00000000E+00  0.00000000E+00
  1.00000000E+00  1.00000000E+00  1.00000000E+00  1.00000000E+00  1.00000000E+00
  1.00000000E+00  1.00000000E+00  1.00000000E+00  2.00000000E+00  1.00000000E+00
  2.00000000E+00  1.00000000E+00  1.00000000E+00  1.00000000E+00  1.00000000E+00
  1.00000000E+00  1.00000000E+00  1.00000000E+00
Virial Ratio                               R      2.004378402409645E+00
SCF Energy                                 R     -3.166091093327991E+02
Total Energy                               R     -3.166091093327991E+02
RMS Density                                R      5.011602370011297E-09
Job Status                                 I                1
Nuclear derivative order                   I                0
External E-field                           R   N=          35
  0.00000000E+00  0.00000000E+00  0.00000000E+00  0.00000000E+00  0.00000000E+00
  0.00000000E+00  0.00000000E+00  0.00000000E+00  0.00000000E+00  0.00000000E+00
  0.00000000E+00  0.00000000E+00  0.00000000E+00  0.00000000E+00  0.00000000E+00
  0.00000000E+00  0.00000000E+00  0.00000000E+00  0.00000000E+00  0.00000000E+00
  0.00000000E+00  0.00000000E+00  0.00000000E+00  0.00000000E+00  0.00000000E+00
  0.00000000E+00  0.00000000E+00  0.00000000E+00  0.00000000E+00  0.00000000E+00
  0.00000000E+00  0.00000000E+00  0.00000000E+00  0.00000000E+00  0.00000000E+00
IOpCl                                      I                0
IROHF                                      I                0
Alpha Orbital Energies                     R   N=         192
 -1.43235594E+01 -1.42965921E+01 -1.02106549E+01 -1.01775108E+01 -1.01706582E+01
 -1.01445965E+01 -6.75391979E+00 -6.73206117E+00 -9.16517754E-01 -8.60109812E-01
 -7.93238732E-01 -7.24477871E-01 -6.21812748E-01 -5.58432942E-01 -5.40810361E-01
 -5.24549330E-01 -4.78402541E-01 -4.59545687E-01 -4.52944881E-01 -4.27405930E-01
 -4.10216375E-01 -3.59894973E-01 -3.48157826E-01 -3.40068682E-01 -3.08655718E-01
 -2.99600175E-01 -2.84067226E-01 -2.20216214E-01 -5.13964574E-02  2.24261314E-02
  2.77526906E-02  3.49061342E-02  6.29498453E-02  6.85865749E-02  8.82926102E-02
  9.30496763E-02  1.15240124E-01  1.29034506E-01  1.33405329E-01  1.42274321E-01
  2.01808087E-01  2.08703150E-01  2.18494256E-01  2.40337623E-01  2.55889173E-01
  2.75440551E-01  3.04794582E-01  3.10108236E-01  3.20220785E-01  3.35846989E-01
  3.47850972E-01  3.60209781E-01  3.77118273E-01  4.06796426E-01  4.16679320E-01
  4.24418087E-01  4.40839691E-01  4.49232650E-01  4.57885947E-01  4.83246432E-01
  4.98365746E-01  5.07771784E-01  5.11221772E-01  5.25200023E-01  5.36377338E-01
  5.68246355E-01  5.84145708E-01  5.94319625E-01  6.09615158E-01  6.18332407E-01
  6.30496306E-01  6.43268813E-01  6.51826774E-01  6.67546367E-01  7.03501616E-01
  7.29154555E-01  7.40090162E-01  7.69630485E-01  7.78895875E-01  7.97864348E-01
  8.00490288E-01  8.27919172E-01  8.42517364E-01  8.86826871E-01  9.05484554E-01
  9.17234277E-01  9.48583449E-01  9.97453649E-01  1.01803007E+00  1.03774343E+00
  1.06861291E+00  1.09328311E+00  1.11563635E+00  1.15257428E+00  1.18938309E+00
  1.21049017E+00  1.23995147E+00  1.24957756E+00  1.27695522E+00  1.30026719E+00
  1.36287681E+00  1.39646799E+00  1.43039535E+00  1.44233592E+00  1.45888595E+00
  1.48588140E+00  1.51444815E+00  1.54024390E+00  1.56519942E+00  1.58229401E+00
  1.63943387E+00  1.65103259E+00  1.67997253E+00  1.68701779E+00  1.69321968E+00
  1.73109721E+00  1.73997160E+00  1.76685985E+00  1.80154157E+00  1.82061769E+00
  1.82754124E+00  1.83215698E+00  1.86128238E+00  1.87168485E+00  1.89197870E+00
  1.90900794E+00  1.93280920E+00  1.95988843E+00  1.96122266E+00  1.99265213E+00
  2.01901824E+00  2.07517878E+00  2.09173306E+00  2.12258621E+00  2.14641939E+00
  2.23249304E+00  2.25347056E+00  2.29341421E+00  2.29909090E+00  2.35193742E+00
  2.37554224E+00  2.38769973E+00  2.43334460E+00  2.43855737E+00  2.46874571E+00
  2.49383893E+00  2.51210327E+00  2.52822378E+00  2.56023102E+00  2.57913607E+00
  2.60129484E+00  2.61295393E+00  2.64589100E+00  2.65990675E+00  2.67938492E+00
  2.68740005E+00  2.71949411E+00  2.73859294E+00  2.75317508E+00  2.77780356E+00
  2.79737851E+00  2.82653930E+00  2.85261816E+00  2.89455583E+00  2.91361699E+00
  2.94242377E+00  2.96707682E+00  3.07342205E+00  3.13331566E+00  3.19732658E+00
  3.34548072E+00  3.41991783E+00  3.49240028E+00  3.59789536E+00  3.65854638E+00
  3.82791614E+00  3.84116643E+00  3.93507347E+00  3.98508193E+00  4.23872735E+00
  4.49969639E+00  4.66704908E+00  4.74967764E+00  4.93963873E+00  1.46887790E+01
  1.47350172E+01  2.36138968E+01  2.37743834E+01  2.42213808E+01  2.42646358E+01
  3.55523532E+01  3.55722002E+01
Alpha MO coefficients                      R   N=       36864
  1.04745049E-05 -1.40953682E-06 -3.82810608E-04 -4.84689260E-05 -2.00596452E-04
  4.72811583E-04  1.06186517E-03  3.61620012E-04  4.89939936E-04  2.42941503E-03
 -5.17243525E-03  9.19337797E-04 -3.20153256E-03 -1.43993890E-04 -5.14114998E-04
 -1.65395712E-04 -7.49472403E-04  2.60498024E-04 -6.49996254E-06  3.00952217E-05
 -1.23915618E-04 -8.80224463E-05 -1.88404604E-05 -2.91981793E-05  7.85817775E-04
  6.45267437E-04  1.13880764E-04 -1.36408441E-03  7.38357486E-04 -4.29992084E-03
  2.21512802E-03  8.90488867E-05 -2.00066537E-05 -2.43097718E-04 -2.28732210E-04
 -3.36540318E-04 -2.91418323E-04  5.97331844E-04  5.26143163E-04  2.92785683E-04
 -4.51921130E-05  1.79943641E-04 -9.17126219E-05 -2.11927701E-03 -7.31563160E-05
 -2.04381651E-04 -1.67039705E-03 -6.39570927E-04 -1.52551299E-04 -1.09482120E-03
  1.30920211E-03 -5.27387950E-04 -4.25134157E-05 -1.54558618E-04 -2.21417169E-05
 -3.20573646E-04  2.72116636E-04 -3.67387154E-05 -3.28661563E-05  3.25474558E-05