Title Card Required                                                     
SP        UB3LYP                                                      6-311G(d,p)         
Number of atoms                            I               16
Info1-9                                    I   N=           9
          26          23           0           0           0         110
           1          18        -502
Full Title                                 C   N=           2
Title Card Required     
Route                                      C   N=           4
#p ub3lyp/6-311g(d,p) nosymm density=current    
Charge                                     I                0
Multiplicity                               I                3
Number of electrons                        I               56
Number of alpha electrons                  I               29
Number of beta electrons                   I               27
Number of basis functions                  I              192
Number of independent functions            I              192
Number of point charges in /Mol/           I                0
Number of translation vectors              I                0
Atomic numbers                             I   N=          16
           6           6           1           1           1           1
           1           1           1           1           5           7
           7           5           7           5
Nuclear charges                            R   N=          16
  6.00000000E+00  6.00000000E+00  1.00000000E+00  1.00000000E+00  1.00000000E+00
  1.00000000E+00  1.00000000E+00  1.00000000E+00  1.00000000E+00  1.00000000E+00
  5.00000000E+00  7.00000000E+00  7.00000000E+00  5.00000000E+00  7.00000000E+00
  5.00000000E+00
Current cartesian coordinates              R   N=          48
 -2.43673003E+00  2.25715502E+00  7.48021630E-01 -2.21525035E-01  3.25623811E+00
 -5.87234283E-01 -3.69751372E+00  3.58356891E+00  1.67519497E+00 -5.40401578E+00
 -9.56428186E-02  3.09544698E-01 -3.94615822E+00 -4.08363390E+00 -8.82802567E-01
  2.43289010E-01 -5.14764609E+00 -4.70464326E-01  4.21000178E+00 -3.94376205E+00
  6.45853587E-01  5.46673012E+00  2.39090039E-01  6.28269686E-01  4.08664046E+00
  4.27342666E+00 -6.97700113E-01 -6.71425361E-01  4.77275844E+00 -1.92492983E+00
 -2.43380284E+00 -2.47698875E+00 -4.00451863E-01 -3.49778857E+00 -6.76200699E-02
  1.51427534E-01  1.65855593E-01 -3.24708050E+00 -2.63250188E-01  2.64869116E+00
 -2.34147271E+00  2.98586176E-01  3.57157482E+00  2.13208350E-01  3.67814403E-01
  2.58200650E+00  2.62484848E+00 -3.06061933E-01
Number of symbols in /Mol/                 I                0
Force Field                                I                0
Atom Types                                 C   N=          16
                                                            
                                                            
                                                            
            
Int Atom Types                             I   N=          16
           0           0           0           0           0           0
           0           0           0           0           0           0
           0           0           0           0
MM charges                                 R   N=          16
  0.00000000E+00  0.00000000E+00  0.00000000E+00  0.00000000E+00  0.00000000E+00
  0.00000000E+00  0.00000000E+00  0.00000000E+00  0.00000000E+00  0.00000000E+00
  0.00000000E+00  0.00000000E+00  0.00000000E+00  0.00000000E+00  0.00000000E+00
  0.00000000E+00
Integer atomic weights                     I   N=          16
          12          12           1           1           1           1
           1           1           1           1          11          14
          14          11          14          11
Real atomic weights                        R   N=          16
  1.20000000E+01  1.20000000E+01  1.00782504E+00  1.00782504E+00  1.00782504E+00
  1.00782504E+00  1.00782504E+00  1.00782504E+00  1.00782504E+00  1.00782504E+00
  1.10093053E+01  1.40030740E+01  1.40030740E+01  1.10093053E+01  1.40030740E+01
  1.10093053E+01
Atom fragment info                         I   N=          16
           0           0           0           0           0           0
           0           0           0           0           0           0
           0           0           0           0
Atom residue num                           I   N=          16
           0           0           0           0           0           0
           0           0           0           0           0           0
           0           0           0           0
Nuclear spins                              I   N=          16
           0           0           1           1           1           1
           1           1           1           1           3           2
           2           3           2           3
Nuclear ZEff                               R   N=          16
 -3.60000000E+00 -3.60000000E+00 -1.00000000E+00 -1.00000000E+00 -1.00000000E+00
 -1.00000000E+00 -1.00000000E+00 -1.00000000E+00 -1.00000000E+00 -1.00000000E+00
 -2.75000000E+00 -4.55000000E+00 -4.55000000E+00 -2.75000000E+00 -4.55000000E+00
 -2.75000000E+00
Nuclear ZNuc                               R   N=          16
  6.00000000E+00  6.00000000E+00  1.00000000E+00  1.00000000E+00  1.00000000E+00
  1.00000000E+00  1.00000000E+00  1.00000000E+00  1.00000000E+00  1.00000000E+00
  5.00000000E+00  7.00000000E+00  7.00000000E+00  5.00000000E+00  7.00000000E+00
  5.00000000E+00
Nuclear QMom                               R   N=          16
  0.00000000E+00  0.00000000E+00  0.00000000E+00  0.00000000E+00  0.00000000E+00
  0.00000000E+00  0.00000000E+00  0.00000000E+00  0.00000000E+00  0.00000000E+00
  4.05900000E+00  2.04400000E+00  2.04400000E+00  4.05900000E+00  2.04400000E+00
  4.05900000E+00
Nuclear GFac                               R   N=          16
  0.00000000E+00  0.00000000E+00  2.79284600E+00  2.79284600E+00  2.79284600E+00
  2.79284600E+00  2.79284600E+00  2.79284600E+00  2.79284600E+00  2.79284600E+00
  2.68863700E+00  4.03761000E-01  4.03761000E-01  2.68863700E+00  4.03761000E-01
  2.68863700E+00
MicOpt                                     I   N=          16
          -1          -1          -1          -1          -1          -1
          -1          -1          -1          -1          -1          -1
          -1          -1          -1          -1
Number of residues                         I                0
Number of secondary structures             I                0
Number of contracted shells                I               72
Number of primitive shells                 I              144
Pure/Cartesian d shells                    I                0
Pure/Cartesian f shells                    I                0
Highest angular momentum                   I                2
Largest degree of contraction              I                6
Shell types                                I   N=          72
           0          -1          -1          -1          -2           0
          -1          -1          -1          -2           0           0
           0           1           0           0           0           1
           0           0           0           1           0           0
           0           1           0           0           0           1
           0           0           0           1           0           0
           0           1           0           0           0           1
           0          -1          -1          -1          -2           0
          -1          -1          -1          -2           0          -1
          -1          -1          -2           0          -1          -1
          -1          -2           0          -1          -1          -1
          -2           0          -1          -1          -1          -2
Number of primitives per shell             I   N=          72
           6           3           1           1           1           6
           3           1           1           1           3           1
           1           1           3           1           1           1
           3           1           1           1           3           1
           1           1           3           1           1           1
           3           1           1           1           3           1
           1           1           3           1           1           1
           6           3           1           1           1           6
           3           1           1           1           6           3
           1           1           1           6           3           1
           1           1           6           3           1           1
           1           6           3           1           1           1
Shell to atom map                          I   N=          72
           1           1           1           1           1           2
           2           2           2           2           3           3
           3           3           4           4           4           4
           5           5           5           5           6           6
           6           6           7           7           7           7
           8           8           8           8           9           9
           9           9          10          10          10          10
          11          11          11          11          11          12
          12          12          12          12          13          13
          13          13          13          14          14          14
          14          14          15          15          15          15
          15          16          16          16          16          16
Primitive exponents                        R   N=         144
  4.56324000E+03  6.82024000E+02  1.54973000E+02  4.44553000E+01  1.30290000E+01
  1.82773000E+00  2.09642000E+01  4.80331000E+00  1.45933000E+00  4.83456000E-01
  1.45585000E-01  6.26000000E-01  4.56324000E+03  6.82024000E+02  1.54973000E+02
  4.44553000E+01  1.30290000E+01  1.82773000E+00  2.09642000E+01  4.80331000E+00
  1.45933000E+00  4.83456000E-01  1.45585000E-01  6.26000000E-01  3.38650000E+01
  5.09479000E+00  1.15879000E+00  3.25840000E-01  1.02741000E-01  7.50000000E-01
  3.38650000E+01  5.09479000E+00  1.15879000E+00  3.25840000E-01  1.02741000E-01
  7.50000000E-01  3.38650000E+01  5.09479000E+00  1.15879000E+00  3.25840000E-01
  1.02741000E-01  7.50000000E-01  3.38650000E+01  5.09479000E+00  1.15879000E+00
  3.25840000E-01  1.02741000E-01  7.50000000E-01  3.38650000E+01  5.09479000E+00
  1.15879000E+00  3.25840000E-01  1.02741000E-01  7.50000000E-01  3.38650000E+01
  5.09479000E+00  1.15879000E+00  3.25840000E-01  1.02741000E-01  7.50000000E-01
  3.38650000E+01  5.09479000E+00  1.15879000E+00  3.25840000E-01  1.02741000E-01
  7.50000000E-01  3.38650000E+01  5.09479000E+00  1.15879000E+00  3.25840000E-01
  1.02741000E-01  7.50000000E-01  2.85889000E+03  4.28140000E+02  9.75282000E+01
  2.79693000E+01  8.21577000E+00  1.11278000E+00  1.32415000E+01  3.00166000E+00
  9.12856000E-01  3.15454000E-01  9.88563000E-02  4.01000000E-01  6.29348000E+03
  9.49044000E+02  2.18776000E+02  6.36916000E+01  1.88282000E+01  2.72023000E+00
  3.06331000E+01  7.02614000E+00  2.11205000E+00  6.84009000E-01  2.00878000E-01
  9.13000000E-01  6.29348000E+03  9.49044000E+02  2.18776000E+02  6.36916000E+01
  1.88282000E+01  2.72023000E+00  3.06331000E+01  7.02614000E+00  2.11205000E+00
  6.84009000E-01  2.00878000E-01  9.13000000E-01  2.85889000E+03  4.28140000E+02
  9.75282000E+01  2.79693000E+01  8.21577000E+00  1.11278000E+00  1.32415000E+01
  3.00166000E+00  9.12856000E-01  3.15454000E-01  9.88563000E-02  4.01000000E-01
  6.29348000E+03  9.49044000E+02  2.18776000E+02  6.36916000E+01  1.88282000E+01
  2.72023000E+00  3.06331000E+01  7.02614000E+00  2.11205000E+00  6.84009000E-01
  2.00878000E-01  9.13000000E-01  2.85889000E+03  4.28140000E+02  9.75282000E+01
  2.79693000E+01  8.21577000E+00  1.11278000E+00  1.32415000E+01  3.00166000E+00
  9.12856000E-01  3.15454000E-01  9.88563000E-02  4.01000000E-01
Contraction coefficients                   R   N=         144
  1.96665025E-03  1.52306019E-02  7.61269097E-02  2.60801033E-01  6.16462078E-01
  2.21006028E-01  1.14660081E-01  9.19999648E-01 -3.03068213E-03  1.00000000E+00
  1.00000000E+00  1.00000000E+00  1.96665025E-03  1.52306019E-02  7.61269097E-02
  2.60801033E-01  6.16462078E-01  2.21006028E-01  1.14660081E-01  9.19999648E-01
 -3.03068213E-03  1.00000000E+00  1.00000000E+00  1.00000000E+00  2.54938145E-02
  1.90373109E-01  8.52161486E-01  1.00000000E+00  1.00000000E+00  1.00000000E+00
  2.54938145E-02  1.90373109E-01  8.52161486E-01  1.00000000E+00  1.00000000E+00
  1.00000000E+00  2.54938145E-02  1.90373109E-01  8.52161486E-01  1.00000000E+00
  1.00000000E+00  1.00000000E+00  2.54938145E-02  1.90373109E-01  8.52161486E-01
  1.00000000E+00  1.00000000E+00  1.00000000E+00  2.54938145E-02  1.90373109E-01
  8.52161486E-01  1.00000000E+00  1.00000000E+00  1.00000000E+00  2.54938145E-02
  1.90373109E-01  8.52161486E-01  1.00000000E+00  1.00000000E+00  1.00000000E+00
  2.54938145E-02  1.90373109E-01  8.52161486E-01  1.00000000E+00  1.00000000E+00
  1.00000000E+00  2.54938145E-02  1.90373109E-01  8.52161486E-01  1.00000000E+00
  1.00000000E+00  1.00000000E+00  2.15374907E-03  1.65822928E-02  8.21869644E-02
  2.76617880E-01  6.29315727E-01  1.73769925E-01  1.17442942E-01  9.18001549E-01
 -2.65104870E-03  1.00000000E+00  1.00000000E+00  1.00000000E+00  1.96978815E-03
  1.49612859E-02  7.35005308E-02  2.48936766E-01  6.02459433E-01  2.56201759E-01
  1.11906080E-01  9.21666655E-01 -2.56919183E-03  1.00000000E+00  1.00000000E+00
  1.00000000E+00  1.96978815E-03  1.49612859E-02  7.35005308E-02  2.48936766E-01
  6.02459433E-01  2.56201759E-01  1.11906080E-01  9.21666655E-01 -2.56919183E-03
  1.00000000E+00  1.00000000E+00  1.00000000E+00  2.15374907E-03  1.65822928E-02
  8.21869644E-02  2.76617880E-01  6.29315727E-01  1.73769925E-01  1.17442942E-01
  9.18001549E-01 -2.65104870E-03  1.00000000E+00  1.00000000E+00  1.00000000E+00
  1.96978815E-03  1.49612859E-02  7.35005308E-02  2.48936766E-01  6.02459433E-01
  2.56201759E-01  1.11906080E-01  9.21666655E-01 -2.56919183E-03  1.00000000E+00
  1.00000000E+00  1.00000000E+00  2.15374907E-03  1.65822928E-02  8.21869644E-02
  2.76617880E-01  6.29315727E-01  1.73769925E-01  1.17442942E-01  9.18001549E-01
 -2.65104870E-03  1.00000000E+00  1.00000000E+00  1.00000000E+00
P(S=P) Contraction coefficients            R   N=         144
  0.00000000E+00  0.00000000E+00  0.00000000E+00  0.00000000E+00  0.00000000E+00
  0.00000000E+00  4.02486927E-02  2.37593957E-01  8.15853851E-01  1.00000000E+00
  1.00000000E+00  0.00000000E+00  0.00000000E+00  0.00000000E+00  0.00000000E+00
  0.00000000E+00  0.00000000E+00  0.00000000E+00  4.02486927E-02  2.37593957E-01
  8.15853851E-01  1.00000000E+00  1.00000000E+00  0.00000000E+00  0.00000000E+00
  0.00000000E+00  0.00000000E+00  0.00000000E+00  0.00000000E+00  0.00000000E+00
  0.00000000E+00  0.00000000E+00  0.00000000E+00  0.00000000E+00  0.00000000E+00
  0.00000000E+00  0.00000000E+00  0.00000000E+00  0.00000000E+00  0.00000000E+00
  0.00000000E+00  0.00000000E+00  0.00000000E+00  0.00000000E+00  0.00000000E+00
  0.00000000E+00  0.00000000E+00  0.00000000E+00  0.00000000E+00  0.00000000E+00
  0.00000000E+00  0.00000000E+00  0.00000000E+00  0.00000000E+00  0.00000000E+00
  0.00000000E+00  0.00000000E+00  0.00000000E+00  0.00000000E+00  0.00000000E+00
  0.00000000E+00  0.00000000E+00  0.00000000E+00  0.00000000E+00  0.00000000E+00
  0.00000000E+00  0.00000000E+00  0.00000000E+00  0.00000000E+00  0.00000000E+00
  0.00000000E+00  0.00000000E+00  0.00000000E+00  0.00000000E+00  0.00000000E+00
  0.00000000E+00  0.00000000E+00  0.00000000E+00  4.18099989E-02  2.36574994E-01
  8.16213978E-01  1.00000000E+00  1.00000000E+00  0.00000000E+00  0.00000000E+00
  0.00000000E+00  0.00000000E+00  0.00000000E+00  0.00000000E+00  0.00000000E+00
  3.83119186E-02  2.37403116E-01  8.17592398E-01  1.00000000E+00  1.00000000E+00
  0.00000000E+00  0.00000000E+00  0.00000000E+00  0.00000000E+00  0.00000000E+00
  0.00000000E+00  0.00000000E+00  3.83119186E-02  2.37403116E-01  8.17592398E-01
  1.00000000E+00  1.00000000E+00  0.00000000E+00  0.00000000E+00  0.00000000E+00
  0.00000000E+00  0.00000000E+00  0.00000000E+00  0.00000000E+00  4.18099989E-02
  2.36574994E-01  8.16213978E-01  1.00000000E+00  1.00000000E+00  0.00000000E+00
  0.00000000E+00  0.00000000E+00  0.00000000E+00  0.00000000E+00  0.00000000E+00
  0.00000000E+00  3.83119186E-02  2.37403116E-01  8.17592398E-01  1.00000000E+00
  1.00000000E+00  0.00000000E+00  0.00000000E+00  0.00000000E+00  0.00000000E+00
  0.00000000E+00  0.00000000E+00  0.00000000E+00  4.18099989E-02  2.36574994E-01
  8.16213978E-01  1.00000000E+00  1.00000000E+00  0.00000000E+00
Coordinates of each shell                  R   N=         216
 -2.43673003E+00  2.25715502E+00  7.48021630E-01 -2.43673003E+00  2.25715502E+00
  7.48021630E-01 -2.43673003E+00  2.25715502E+00  7.48021630E-01 -2.43673003E+00
  2.25715502E+00  7.48021630E-01 -2.43673003E+00  2.25715502E+00  7.48021630E-01
 -2.21525035E-01  3.25623811E+00 -5.87234283E-01 -2.21525035E-01  3.25623811E+00
 -5.87234283E-01 -2.21525035E-01  3.25623811E+00 -5.87234283E-01 -2.21525035E-01
  3.25623811E+00 -5.87234283E-01 -2.21525035E-01  3.25623811E+00 -5.87234283E-01
 -3.69751372E+00  3.58356891E+00  1.67519497E+00 -3.69751372E+00  3.58356891E+00
  1.67519497E+00 -3.69751372E+00  3.58356891E+00  1.67519497E+00 -3.69751372E+00
  3.58356891E+00  1.67519497E+00 -5.40401578E+00 -9.56428186E-02  3.09544698E-01
 -5.40401578E+00 -9.56428186E-02  3.09544698E-01 -5.40401578E+00 -9.56428186E-02
  3.09544698E-01 -5.40401578E+00 -9.56428186E-02  3.09544698E-01 -3.94615822E+00
 -4.08363390E+00 -8.82802567E-01 -3.94615822E+00 -4.08363390E+00 -8.82802567E-01
 -3.94615822E+00 -4.08363390E+00 -8.82802567E-01 -3.94615822E+00 -4.08363390E+00
 -8.82802567E-01  2.43289010E-01 -5.14764609E+00 -4.70464326E-01  2.43289010E-01
 -5.14764609E+00 -4.70464326E-01  2.43289010E-01 -5.14764609E+00 -4.70464326E-01
  2.43289010E-01 -5.14764609E+00 -4.70464326E-01  4.21000178E+00 -3.94376205E+00
  6.45853587E-01  4.21000178E+00 -3.94376205E+00  6.45853587E-01  4.21000178E+00
 -3.94376205E+00  6.45853587E-01  4.21000178E+00 -3.94376205E+00  6.45853587E-01
  5.46673012E+00  2.39090039E-01  6.28269686E-01  5.46673012E+00  2.39090039E-01
  6.28269686E-01  5.46673012E+00  2.39090039E-01  6.28269686E-01  5.46673012E+00
  2.39090039E-01  6.28269686E-01  4.08664046E+00  4.27342666E+00 -6.97700113E-01
  4.08664046E+00  4.27342666E+00 -6.97700113E-01  4.08664046E+00  4.27342666E+00
 -6.97700113E-01  4.08664046E+00  4.27342666E+00 -6.97700113E-01 -6.71425361E-01
  4.77275844E+00 -1.92492983E+00 -6.71425361E-01  4.77275844E+00 -1.92492983E+00
 -6.71425361E-01  4.77275844E+00 -1.92492983E+00 -6.71425361E-01  4.77275844E+00
 -1.92492983E+00 -2.43380284E+00 -2.47698875E+00 -4.00451863E-01 -2.43380284E+00
 -2.47698875E+00 -4.00451863E-01 -2.43380284E+00 -2.47698875E+00 -4.00451863E-01
 -2.43380284E+00 -2.47698875E+00 -4.00451863E-01 -2.43380284E+00 -2.47698875E+00
 -4.00451863E-01 -3.49778857E+00 -6.76200699E-02  1.51427534E-01 -3.49778857E+00
 -6.76200699E-02  1.51427534E-01 -3.49778857E+00 -6.76200699E-02  1.51427534E-01
 -3.49778857E+00 -6.76200699E-02  1.51427534E-01 -3.49778857E+00 -6.76200699E-02
  1.51427534E-01  1.65855593E-01 -3.24708050E+00 -2.63250188E-01  1.65855593E-01
 -3.24708050E+00 -2.63250188E-01  1.65855593E-01 -3.24708050E+00 -2.63250188E-01
  1.65855593E-01 -3.24708050E+00 -2.63250188E-01  1.65855593E-01 -3.24708050E+00
 -2.63250188E-01  2.64869116E+00 -2.34147271E+00  2.98586176E-01  2.64869116E+00
 -2.34147271E+00  2.98586176E-01  2.64869116E+00 -2.34147271E+00  2.98586176E-01
  2.64869116E+00 -2.34147271E+00  2.98586176E-01  2.64869116E+00 -2.34147271E+00
  2.98586176E-01  3.57157482E+00  2.13208350E-01  3.67814403E-01  3.57157482E+00
  2.13208350E-01  3.67814403E-01  3.57157482E+00  2.13208350E-01  3.67814403E-01
  3.57157482E+00  2.13208350E-01  3.67814403E-01  3.57157482E+00  2.13208350E-01
  3.67814403E-01  2.58200650E+00  2.62484848E+00 -3.06061933E-01  2.58200650E+00
  2.62484848E+00 -3.06061933E-01  2.58200650E+00  2.62484848E+00 -3.06061933E-01
  2.58200650E+00  2.62484848E+00 -3.06061933E-01  2.58200650E+00  2.62484848E+00
 -3.06061933E-01
Num ILSW                                   I              100
ILSW                                       I   N=         100
           1           0           0           0           2           0
           0           0           0           0         402          -1
           5           0           0           0           0           0
           0           0           0           0           0           0
           1           1           0           0           0           0
           0           0      100000           0          -1           0
           0           0           0           0           0           0
           0           0           0           1           0           0
           0 -2000000000           1           0           0           0
           0           0           4          52           0           0
           0           0           5           0           0           0
           0           0           0          16           0           1
           0           0           0           0           0           0
           0           0           0           0           0           0
           0           0           0           0           0           0
           0           0           0           0           0           0
           0           0           0           0
Num RLSW                                   I               52
RLSW                                       R   N=          52
  8.00000000E-01  7.20000000E-01  1.00000000E+00  8.10000000E-01  2.00000000E-01
  0.00000000E+00  0.00000000E+00  1.00000000E+00  0.00000000E+00  0.00000000E+00
  0.00000000E+00  0.00000000E+00  1.00000000E+00  0.00000000E+00  0.00000000E+00
  0.00000000E+00  0.00000000E+00  1.00000000E+00  0.00000000E+00  0.00000000E+00
  0.00000000E+00  0.00000000E+00  1.00000000E+00  0.00000000E+00  0.00000000E+00
  0.00000000E+00  0.00000000E+00  1.00000000E+00  0.00000000E+00  0.00000000E+00
  0.00000000E+00  0.00000000E+00  1.00000000E+00  0.00000000E+00  0.00000000E+00
  0.00000000E+00  0.00000000E+00  0.00000000E+00  1.00000000E+00  1.00000000E+00
  0.00000000E+00  1.00000000E+00  0.00000000E+00  0.00000000E+00  0.00000000E+00
  0.00000000E+00  0.00000000E+00  0.00000000E+00  0.00000000E+00  0.00000000E+00
  0.00000000E+00  0.00000000E+00
MxBond                                     I                3
NBond                                      I   N=          16
           3           3           1           1           1           1
           1           1           1           1           3           3
           3           3           3           3
IBond                                      I   N=          48
           2           3          12           1          10          16
           1           0           0          12           0           0
          11           0           0          13           0           0
          14           0           0          15           0           0
          16           0           0           2           0           0
           5          12          13           1           4          11
           6          11          14           7          13          15
           8          14          16           2           9          15
RBond                                      R   N=          48
  1.00000000E+00  1.00000000E+00  1.00000000E+00  1.00000000E+00  1.00000000E+00
  1.00000000E+00  1.00000000E+00  0.00000000E+00  0.00000000E+00  1.00000000E+00
  0.00000000E+00  0.00000000E+00  1.00000000E+00  0.00000000E+00  0.00000000E+00
  1.00000000E+00  0.00000000E+00  0.00000000E+00  1.00000000E+00  0.00000000E+00
  0.00000000E+00  1.00000000E+00  0.00000000E+00  0.00000000E+00  1.00000000E+00
  0.00000000E+00  0.00000000E+00  1.00000000E+00  0.00000000E+00  0.00000000E+00
  1.00000000E+00  1.00000000E+00  1.00000000E+00  1.00000000E+00  1.00000000E+00
  1.00000000E+00  1.00000000E+00  1.00000000E+00  1.00000000E+00  1.00000000E+00
  1.00000000E+00  1.00000000E+00  1.00000000E+00  1.00000000E+00  1.00000000E+00
  1.00000000E+00  1.00000000E+00  1.00000000E+00
Virial Ratio                               R      2.004236385907140E+00
SCF Energy                                 R     -3.200125719421997E+02
Total Energy                               R     -3.200125719421997E+02
S**2                                       R      2.005470445683674E+00
S**2 after annihilation                    R      2.000017277565072E+00
RMS Density                                R      3.622904474888037E-09
Job Status                                 I                1
Nuclear derivative order                   I                0
External E-field                           R   N=          35
  0.00000000E+00  0.00000000E+00  0.00000000E+00  0.00000000E+00  0.00000000E+00
  0.00000000E+00  0.00000000E+00  0.00000000E+00  0.00000000E+00  0.00000000E+00
  0.00000000E+00  0.00000000E+00  0.00000000E+00  0.00000000E+00  0.00000000E+00
  0.00000000E+00  0.00000000E+00  0.00000000E+00  0.00000000E+00  0.00000000E+00
  0.00000000E+00  0.00000000E+00  0.00000000E+00  0.00000000E+00  0.00000000E+00
  0.00000000E+00  0.00000000E+00  0.00000000E+00  0.00000000E+00  0.00000000E+00
  0.00000000E+00  0.00000000E+00  0.00000000E+00  0.00000000E+00  0.00000000E+00
IOpCl                                      I                1
IROHF                                      I                0
Alpha Orbital Energies                     R   N=         192
 -1.43330317E+01 -1.43005382E+01 -1.42968341E+01 -1.02042364E+01 -1.01806630E+01
 -6.74957813E+00 -6.74737030E+00 -6.72996979E+00 -9.22995220E-01 -8.72673444E-01
 -8.52268508E-01 -7.42641853E-01 -6.18060088E-01 -5.48482466E-01 -5.39366752E-01
 -5.21866950E-01 -4.91523121E-01 -4.62024565E-01 -4.49455392E-01 -4.26942164E-01
 -4.03522079E-01 -3.74840270E-01 -3.49397501E-01 -3.36735746E-01 -3.29204301E-01
 -3.22219305E-01 -2.90100952E-01 -2.31084897E-01 -1.59853132E-01 -9.64781202E-03
  2.97685364E-02  4.08625066E-02  5.33806569E-02  6.78244066E-02  8.46617680E-02
  8.77067554E-02  1.04711003E-01  1.27522003E-01  1.32238633E-01  1.36555800E-01
  1.88718313E-01  2.10471329E-01  2.23833320E-01  2.32240555E-01  2.40766148E-01
  2.51238262E-01  2.72266194E-01  2.87022160E-01  2.89073422E-01  2.99583921E-01
  3.16112777E-01  3.31318123E-01  3.34397414E-01  3.40924335E-01  3.64445466E-01
  4.08633016E-01  4.23981389E-01  4.36722330E-01  4.47299643E-01  4.57717604E-01
  4.61594944E-01  4.75500851E-01  4.90522037E-01  5.05589522E-01  5.19694786E-01
  5.40443598E-01  5.48361227E-01  5.91768374E-01  6.00803290E-01  6.28948837E-01
  6.35122726E-01  6.46111980E-01  6.63437209E-01  6.72562552E-01  6.82116932E-01
  7.07225842E-01  7.29736899E-01  7.53310764E-01  7.85594948E-01  7.95269709E-01
  8.14044135E-01  8.32279997E-01  8.58787489E-01  8.71054407E-01  8.94424214E-01
  9.03614308E-01  9.29263385E-01  9.29761189E-01  9.73647861E-01  1.00699230E+00
  1.03632801E+00  1.04234788E+00  1.08238540E+00  1.10561968E+00  1.13293524E+00
  1.16359874E+00  1.17431487E+00  1.20995934E+00  1.25438330E+00  1.27420797E+00
  1.29791370E+00  1.33421180E+00  1.35941475E+00  1.42679446E+00  1.43040444E+00
  1.45813560E+00  1.47083058E+00  1.49337111E+00  1.52216574E+00  1.54604983E+00
  1.58390166E+00  1.59677548E+00  1.60570711E+00  1.65126577E+00  1.68729716E+00
  1.69899815E+00  1.70473820E+00  1.71794784E+00  1.76408843E+00  1.78864419E+00
  1.83136282E+00  1.84711334E+00  1.85828569E+00  1.87928360E+00  1.90887917E+00
  1.91762252E+00  1.92522279E+00  1.93265146E+00  1.95374897E+00  1.97676027E+00
  1.98974859E+00  2.01244994E+00  2.01793606E+00  2.07601196E+00  2.11548044E+00
  2.14340062E+00  2.16825966E+00  2.29896185E+00  2.32736164E+00  2.33462113E+00
  2.35429511E+00  2.38545501E+00  2.41351130E+00  2.42578350E+00  2.45270507E+00
  2.47656206E+00  2.49575583E+00  2.51947793E+00  2.53116172E+00  2.54325573E+00
  2.54971587E+00  2.58688833E+00  2.61243332E+00  2.62481559E+00  2.63833667E+00
  2.67586264E+00  2.71455112E+00  2.72362185E+00  2.74073322E+00  2.76095585E+00
  2.78320120E+00  2.79938779E+00  2.82424097E+00  2.85713481E+00  2.89486080E+00
  2.90825851E+00  2.93655240E+00  2.95378783E+00  3.13811742E+00  3.17595451E+00
  3.27036687E+00  3.34587148E+00  3.60205996E+00  3.65882437E+00  3.76806950E+00
  3.79310950E+00  3.81046618E+00  3.98496687E+00  4.49155274E+00  4.50060547E+00
  4.65961944E+00  4.75255629E+00  4.79135369E+00  4.88212141E+00  1.46639317E+01
  1.47098043E+01  1.48052566E+01  2.37628688E+01  2.38767001E+01  3.55402794E+01
  3.55458183E+01  3.55665810E+01
Beta Orbital Energies                      R   N=         192
 -1.43303910E+01 -1.42990711E+01 -1.42965349E+01 -1.01924602E+01 -1.01694324E+01
 -6.74924217E+00 -6.74609947E+00 -6.72913576E+00 -9.10989300E-01 -8.69812430E-01
 -8.49767370E-01 -7.08880635E-01 -5.95702343E-01 -5.42155414E-01 -5.36494359E-01
 -5.15751287E-01 -4.84440235E-01 -4.53351143E-01 -4.45555927E-01 -4.11747439E-01
 -3.88341497E-01 -3.62238827E-01 -3.45097632E-01 -3.31106802E-01 -3.20244980E-01
 -3.10642057E-01 -2.74959946E-01 -1.10973274E-01 -4.94751019E-02  1.19553399E-02
  4.11899307E-02  5.23819532E-02  5.71568126E-02  6.99680340E-02  9.13598376E-02
  9.45624798E-02  1.12055431E-01  1.29728819E-01  1.34815566E-01  1.39511589E-01
  1.93615709E-01  2.13905647E-01  2.27873434E-01  2.35368134E-01  2.45712780E-01
  2.57986632E-01  2.82804555E-01  2.92517584E-01  3.00425801E-01  3.05703916E-01