Title Card Required                                                     
SP        RB3LYP                                                      6-311G(d,p)         
Number of atoms                            I               16
Info1-9                                    I   N=           9
          25          23           0           0           0         110
           1          18        -502
Full Title                                 C   N=           2
Title Card Required     
Route                                      C   N=           5
#p b3lyp/6-311g(d,p) nosymm pop=nbo density=current         
Charge                                     I                0
Multiplicity                               I                1
Number of electrons                        I               56
Number of alpha electrons                  I               28
Number of beta electrons                   I               28
Number of basis functions                  I              192
Number of independent functions            I              192
Number of point charges in /Mol/           I                0
Number of translation vectors              I                0
Atomic numbers                             I   N=          16
           6           6           1           1           1           1
           1           1           1           1           5           7
           7           5           7           5
Nuclear charges                            R   N=          16
  6.00000000E+00  6.00000000E+00  1.00000000E+00  1.00000000E+00  1.00000000E+00
  1.00000000E+00  1.00000000E+00  1.00000000E+00  1.00000000E+00  1.00000000E+00
  5.00000000E+00  7.00000000E+00  7.00000000E+00  5.00000000E+00  7.00000000E+00
  5.00000000E+00
Current cartesian coordinates              R   N=          48
 -3.36640914E+00  1.11172399E+00 -2.34326039E-04 -1.70788534E+00  3.05010300E+00
 -5.32902767E-04 -5.36329219E+00  1.60537337E+00 -6.29278799E-04 -4.77287371E+00
 -2.36172869E+00  1.06391581E-03 -1.81733639E+00 -5.44496615E+00  5.89594551E-04
  2.44260897E+00 -4.72017303E+00 -9.63760324E-04  5.64337794E+00 -1.82278447E+00
 -4.44085639E-04  4.90115399E+00  2.47939249E+00  9.18406897E-04  1.87567223E+00
  5.56220287E+00  6.68963048E-04 -2.70010116E+00  4.85258236E+00 -1.19619664E-03
 -1.06954341E+00 -3.31154094E+00  2.21097957E-04 -3.07228272E+00 -1.49884761E+00
  5.70697290E-04  1.60818339E+00 -3.00023313E+00 -5.57469207E-04  3.50849576E+00
 -1.07164101E+00 -2.11649326E-04  3.19901720E+00  1.60937958E+00  4.68652079E-04
  1.17947445E+00  3.40459295E+00  2.38105492E-04
Number of symbols in /Mol/                 I                0
Force Field                                I                0
Atom Types                                 C   N=          16
                                                            
                                                            
                                                            
            
Int Atom Types                             I   N=          16
           0           0           0           0           0           0
           0           0           0           0           0           0
           0           0           0           0
MM charges                                 R   N=          16
  0.00000000E+00  0.00000000E+00  0.00000000E+00  0.00000000E+00  0.00000000E+00
  0.00000000E+00  0.00000000E+00  0.00000000E+00  0.00000000E+00  0.00000000E+00
  0.00000000E+00  0.00000000E+00  0.00000000E+00  0.00000000E+00  0.00000000E+00
  0.00000000E+00
Integer atomic weights                     I   N=          16
          12          12           1           1           1           1
           1           1           1           1          11          14
          14          11          14          11
Real atomic weights                        R   N=          16
  1.20000000E+01  1.20000000E+01  1.00782504E+00  1.00782504E+00  1.00782504E+00
  1.00782504E+00  1.00782504E+00  1.00782504E+00  1.00782504E+00  1.00782504E+00
  1.10093053E+01  1.40030740E+01  1.40030740E+01  1.10093053E+01  1.40030740E+01
  1.10093053E+01
Atom fragment info                         I   N=          16
           0           0           0           0           0           0
           0           0           0           0           0           0
           0           0           0           0
Atom residue num                           I   N=          16
           0           0           0           0           0           0
           0           0           0           0           0           0
           0           0           0           0
Nuclear spins                              I   N=          16
           0           0           1           1           1           1
           1           1           1           1           3           2
           2           3           2           3
Nuclear ZEff                               R   N=          16
 -3.60000000E+00 -3.60000000E+00 -1.00000000E+00 -1.00000000E+00 -1.00000000E+00
 -1.00000000E+00 -1.00000000E+00 -1.00000000E+00 -1.00000000E+00 -1.00000000E+00
 -2.75000000E+00 -4.55000000E+00 -4.55000000E+00 -2.75000000E+00 -4.55000000E+00
 -2.75000000E+00
Nuclear ZNuc                               R   N=          16
  6.00000000E+00  6.00000000E+00  1.00000000E+00  1.00000000E+00  1.00000000E+00
  1.00000000E+00  1.00000000E+00  1.00000000E+00  1.00000000E+00  1.00000000E+00
  5.00000000E+00  7.00000000E+00  7.00000000E+00  5.00000000E+00  7.00000000E+00
  5.00000000E+00
Nuclear QMom                               R   N=          16
  0.00000000E+00  0.00000000E+00  0.00000000E+00  0.00000000E+00  0.00000000E+00
  0.00000000E+00  0.00000000E+00  0.00000000E+00  0.00000000E+00  0.00000000E+00
  4.05900000E+00  2.04400000E+00  2.04400000E+00  4.05900000E+00  2.04400000E+00
  4.05900000E+00
Nuclear GFac                               R   N=          16
  0.00000000E+00  0.00000000E+00  2.79284600E+00  2.79284600E+00  2.79284600E+00
  2.79284600E+00  2.79284600E+00  2.79284600E+00  2.79284600E+00  2.79284600E+00
  2.68863700E+00  4.03761000E-01  4.03761000E-01  2.68863700E+00  4.03761000E-01
  2.68863700E+00
MicOpt                                     I   N=          16
          -1          -1          -1          -1          -1          -1
          -1          -1          -1          -1          -1          -1
          -1          -1          -1          -1
Number of residues                         I                0
Number of secondary structures             I                0
Number of contracted shells                I               72
Number of primitive shells                 I              144
Pure/Cartesian d shells                    I                0
Pure/Cartesian f shells                    I                0
Highest angular momentum                   I                2
Largest degree of contraction              I                6
Shell types                                I   N=          72
           0          -1          -1          -1          -2           0
          -1          -1          -1          -2           0           0
           0           1           0           0           0           1
           0           0           0           1           0           0
           0           1           0           0           0           1
           0           0           0           1           0           0
           0           1           0           0           0           1
           0          -1          -1          -1          -2           0
          -1          -1          -1          -2           0          -1
          -1          -1          -2           0          -1          -1
          -1          -2           0          -1          -1          -1
          -2           0          -1          -1          -1          -2
Number of primitives per shell             I   N=          72
           6           3           1           1           1           6
           3           1           1           1           3           1
           1           1           3           1           1           1
           3           1           1           1           3           1
           1           1           3           1           1           1
           3           1           1           1           3           1
           1           1           3           1           1           1
           6           3           1           1           1           6
           3           1           1           1           6           3
           1           1           1           6           3           1
           1           1           6           3           1           1
           1           6           3           1           1           1
Shell to atom map                          I   N=          72
           1           1           1           1           1           2
           2           2           2           2           3           3
           3           3           4           4           4           4
           5           5           5           5           6           6
           6           6           7           7           7           7
           8           8           8           8           9           9
           9           9          10          10          10          10
          11          11          11          11          11          12
          12          12          12          12          13          13
          13          13          13          14          14          14
          14          14          15          15          15          15
          15          16          16          16          16          16
Primitive exponents                        R   N=         144
  4.56324000E+03  6.82024000E+02  1.54973000E+02  4.44553000E+01  1.30290000E+01
  1.82773000E+00  2.09642000E+01  4.80331000E+00  1.45933000E+00  4.83456000E-01
  1.45585000E-01  6.26000000E-01  4.56324000E+03  6.82024000E+02  1.54973000E+02
  4.44553000E+01  1.30290000E+01  1.82773000E+00  2.09642000E+01  4.80331000E+00
  1.45933000E+00  4.83456000E-01  1.45585000E-01  6.26000000E-01  3.38650000E+01
  5.09479000E+00  1.15879000E+00  3.25840000E-01  1.02741000E-01  7.50000000E-01
  3.38650000E+01  5.09479000E+00  1.15879000E+00  3.25840000E-01  1.02741000E-01
  7.50000000E-01  3.38650000E+01  5.09479000E+00  1.15879000E+00  3.25840000E-01
  1.02741000E-01  7.50000000E-01  3.38650000E+01  5.09479000E+00  1.15879000E+00
  3.25840000E-01  1.02741000E-01  7.50000000E-01  3.38650000E+01  5.09479000E+00
  1.15879000E+00  3.25840000E-01  1.02741000E-01  7.50000000E-01  3.38650000E+01
  5.09479000E+00  1.15879000E+00  3.25840000E-01  1.02741000E-01  7.50000000E-01
  3.38650000E+01  5.09479000E+00  1.15879000E+00  3.25840000E-01  1.02741000E-01
  7.50000000E-01  3.38650000E+01  5.09479000E+00  1.15879000E+00  3.25840000E-01
  1.02741000E-01  7.50000000E-01  2.85889000E+03  4.28140000E+02  9.75282000E+01
  2.79693000E+01  8.21577000E+00  1.11278000E+00  1.32415000E+01  3.00166000E+00
  9.12856000E-01  3.15454000E-01  9.88563000E-02  4.01000000E-01  6.29348000E+03
  9.49044000E+02  2.18776000E+02  6.36916000E+01  1.88282000E+01  2.72023000E+00
  3.06331000E+01  7.02614000E+00  2.11205000E+00  6.84009000E-01  2.00878000E-01
  9.13000000E-01  6.29348000E+03  9.49044000E+02  2.18776000E+02  6.36916000E+01
  1.88282000E+01  2.72023000E+00  3.06331000E+01  7.02614000E+00  2.11205000E+00
  6.84009000E-01  2.00878000E-01  9.13000000E-01  2.85889000E+03  4.28140000E+02
  9.75282000E+01  2.79693000E+01  8.21577000E+00  1.11278000E+00  1.32415000E+01
  3.00166000E+00  9.12856000E-01  3.15454000E-01  9.88563000E-02  4.01000000E-01
  6.29348000E+03  9.49044000E+02  2.18776000E+02  6.36916000E+01  1.88282000E+01
  2.72023000E+00  3.06331000E+01  7.02614000E+00  2.11205000E+00  6.84009000E-01
  2.00878000E-01  9.13000000E-01  2.85889000E+03  4.28140000E+02  9.75282000E+01
  2.79693000E+01  8.21577000E+00  1.11278000E+00  1.32415000E+01  3.00166000E+00
  9.12856000E-01  3.15454000E-01  9.88563000E-02  4.01000000E-01
Contraction coefficients                   R   N=         144
  1.96665025E-03  1.52306019E-02  7.61269097E-02  2.60801033E-01  6.16462078E-01
  2.21006028E-01  1.14660081E-01  9.19999648E-01 -3.03068213E-03  1.00000000E+00
  1.00000000E+00  1.00000000E+00  1.96665025E-03  1.52306019E-02  7.61269097E-02
  2.60801033E-01  6.16462078E-01  2.21006028E-01  1.14660081E-01  9.19999648E-01
 -3.03068213E-03  1.00000000E+00  1.00000000E+00  1.00000000E+00  2.54938145E-02
  1.90373109E-01  8.52161486E-01  1.00000000E+00  1.00000000E+00  1.00000000E+00
  2.54938145E-02  1.90373109E-01  8.52161486E-01  1.00000000E+00  1.00000000E+00
  1.00000000E+00  2.54938145E-02  1.90373109E-01  8.52161486E-01  1.00000000E+00
  1.00000000E+00  1.00000000E+00  2.54938145E-02  1.90373109E-01  8.52161486E-01
  1.00000000E+00  1.00000000E+00  1.00000000E+00  2.54938145E-02  1.90373109E-01
  8.52161486E-01  1.00000000E+00  1.00000000E+00  1.00000000E+00  2.54938145E-02
  1.90373109E-01  8.52161486E-01  1.00000000E+00  1.00000000E+00  1.00000000E+00
  2.54938145E-02  1.90373109E-01  8.52161486E-01  1.00000000E+00  1.00000000E+00
  1.00000000E+00  2.54938145E-02  1.90373109E-01  8.52161486E-01  1.00000000E+00
  1.00000000E+00  1.00000000E+00  2.15374907E-03  1.65822928E-02  8.21869644E-02
  2.76617880E-01  6.29315727E-01  1.73769925E-01  1.17442942E-01  9.18001549E-01
 -2.65104870E-03  1.00000000E+00  1.00000000E+00  1.00000000E+00  1.96978815E-03
  1.49612859E-02  7.35005308E-02  2.48936766E-01  6.02459433E-01  2.56201759E-01
  1.11906080E-01  9.21666655E-01 -2.56919183E-03  1.00000000E+00  1.00000000E+00
  1.00000000E+00  1.96978815E-03  1.49612859E-02  7.35005308E-02  2.48936766E-01
  6.02459433E-01  2.56201759E-01  1.11906080E-01  9.21666655E-01 -2.56919183E-03
  1.00000000E+00  1.00000000E+00  1.00000000E+00  2.15374907E-03  1.65822928E-02
  8.21869644E-02  2.76617880E-01  6.29315727E-01  1.73769925E-01  1.17442942E-01
  9.18001549E-01 -2.65104870E-03  1.00000000E+00  1.00000000E+00  1.00000000E+00
  1.96978815E-03  1.49612859E-02  7.35005308E-02  2.48936766E-01  6.02459433E-01
  2.56201759E-01  1.11906080E-01  9.21666655E-01 -2.56919183E-03  1.00000000E+00
  1.00000000E+00  1.00000000E+00  2.15374907E-03  1.65822928E-02  8.21869644E-02
  2.76617880E-01  6.29315727E-01  1.73769925E-01  1.17442942E-01  9.18001549E-01
 -2.65104870E-03  1.00000000E+00  1.00000000E+00  1.00000000E+00
P(S=P) Contraction coefficients            R   N=         144
  0.00000000E+00  0.00000000E+00  0.00000000E+00  0.00000000E+00  0.00000000E+00
  0.00000000E+00  4.02486927E-02  2.37593957E-01  8.15853851E-01  1.00000000E+00
  1.00000000E+00  0.00000000E+00  0.00000000E+00  0.00000000E+00  0.00000000E+00
  0.00000000E+00  0.00000000E+00  0.00000000E+00  4.02486927E-02  2.37593957E-01
  8.15853851E-01  1.00000000E+00  1.00000000E+00  0.00000000E+00  0.00000000E+00
  0.00000000E+00  0.00000000E+00  0.00000000E+00  0.00000000E+00  0.00000000E+00
  0.00000000E+00  0.00000000E+00  0.00000000E+00  0.00000000E+00  0.00000000E+00
  0.00000000E+00  0.00000000E+00  0.00000000E+00  0.00000000E+00  0.00000000E+00
  0.00000000E+00  0.00000000E+00  0.00000000E+00  0.00000000E+00  0.00000000E+00
  0.00000000E+00  0.00000000E+00  0.00000000E+00  0.00000000E+00  0.00000000E+00
  0.00000000E+00  0.00000000E+00  0.00000000E+00  0.00000000E+00  0.00000000E+00
  0.00000000E+00  0.00000000E+00  0.00000000E+00  0.00000000E+00  0.00000000E+00
  0.00000000E+00  0.00000000E+00  0.00000000E+00  0.00000000E+00  0.00000000E+00
  0.00000000E+00  0.00000000E+00  0.00000000E+00  0.00000000E+00  0.00000000E+00
  0.00000000E+00  0.00000000E+00  0.00000000E+00  0.00000000E+00  0.00000000E+00
  0.00000000E+00  0.00000000E+00  0.00000000E+00  4.18099989E-02  2.36574994E-01
  8.16213978E-01  1.00000000E+00  1.00000000E+00  0.00000000E+00  0.00000000E+00
  0.00000000E+00  0.00000000E+00  0.00000000E+00  0.00000000E+00  0.00000000E+00
  3.83119186E-02  2.37403116E-01  8.17592398E-01  1.00000000E+00  1.00000000E+00
  0.00000000E+00  0.00000000E+00  0.00000000E+00  0.00000000E+00  0.00000000E+00
  0.00000000E+00  0.00000000E+00  3.83119186E-02  2.37403116E-01  8.17592398E-01
  1.00000000E+00  1.00000000E+00  0.00000000E+00  0.00000000E+00  0.00000000E+00
  0.00000000E+00  0.00000000E+00  0.00000000E+00  0.00000000E+00  4.18099989E-02
  2.36574994E-01  8.16213978E-01  1.00000000E+00  1.00000000E+00  0.00000000E+00
  0.00000000E+00  0.00000000E+00  0.00000000E+00  0.00000000E+00  0.00000000E+00
  0.00000000E+00  3.83119186E-02  2.37403116E-01  8.17592398E-01  1.00000000E+00
  1.00000000E+00  0.00000000E+00  0.00000000E+00  0.00000000E+00  0.00000000E+00
  0.00000000E+00  0.00000000E+00  0.00000000E+00  4.18099989E-02  2.36574994E-01
  8.16213978E-01  1.00000000E+00  1.00000000E+00  0.00000000E+00
Coordinates of each shell                  R   N=         216
 -3.36640914E+00  1.11172399E+00 -2.34326039E-04 -3.36640914E+00  1.11172399E+00
 -2.34326039E-04 -3.36640914E+00  1.11172399E+00 -2.34326039E-04 -3.36640914E+00
  1.11172399E+00 -2.34326039E-04 -3.36640914E+00  1.11172399E+00 -2.34326039E-04
 -1.70788534E+00  3.05010300E+00 -5.32902767E-04 -1.70788534E+00  3.05010300E+00
 -5.32902767E-04 -1.70788534E+00  3.05010300E+00 -5.32902767E-04 -1.70788534E+00
  3.05010300E+00 -5.32902767E-04 -1.70788534E+00  3.05010300E+00 -5.32902767E-04
 -5.36329219E+00  1.60537337E+00 -6.29278799E-04 -5.36329219E+00  1.60537337E+00
 -6.29278799E-04 -5.36329219E+00  1.60537337E+00 -6.29278799E-04 -5.36329219E+00
  1.60537337E+00 -6.29278799E-04 -4.77287371E+00 -2.36172869E+00  1.06391581E-03
 -4.77287371E+00 -2.36172869E+00  1.06391581E-03 -4.77287371E+00 -2.36172869E+00
  1.06391581E-03 -4.77287371E+00 -2.36172869E+00  1.06391581E-03 -1.81733639E+00
 -5.44496615E+00  5.89594551E-04 -1.81733639E+00 -5.44496615E+00  5.89594551E-04
 -1.81733639E+00 -5.44496615E+00  5.89594551E-04 -1.81733639E+00 -5.44496615E+00
  5.89594551E-04  2.44260897E+00 -4.72017303E+00 -9.63760324E-04  2.44260897E+00
 -4.72017303E+00 -9.63760324E-04  2.44260897E+00 -4.72017303E+00 -9.63760324E-04
  2.44260897E+00 -4.72017303E+00 -9.63760324E-04  5.64337794E+00 -1.82278447E+00
 -4.44085639E-04  5.64337794E+00 -1.82278447E+00 -4.44085639E-04  5.64337794E+00
 -1.82278447E+00 -4.44085639E-04  5.64337794E+00 -1.82278447E+00 -4.44085639E-04
  4.90115399E+00  2.47939249E+00  9.18406897E-04  4.90115399E+00  2.47939249E+00
  9.18406897E-04  4.90115399E+00  2.47939249E+00  9.18406897E-04  4.90115399E+00
  2.47939249E+00  9.18406897E-04  1.87567223E+00  5.56220287E+00  6.68963048E-04
  1.87567223E+00  5.56220287E+00  6.68963048E-04  1.87567223E+00  5.56220287E+00
  6.68963048E-04  1.87567223E+00  5.56220287E+00  6.68963048E-04 -2.70010116E+00
  4.85258236E+00 -1.19619664E-03 -2.70010116E+00  4.85258236E+00 -1.19619664E-03
 -2.70010116E+00  4.85258236E+00 -1.19619664E-03 -2.70010116E+00  4.85258236E+00
 -1.19619664E-03 -1.06954341E+00 -3.31154094E+00  2.21097957E-04 -1.06954341E+00
 -3.31154094E+00  2.21097957E-04 -1.06954341E+00 -3.31154094E+00  2.21097957E-04
 -1.06954341E+00 -3.31154094E+00  2.21097957E-04 -1.06954341E+00 -3.31154094E+00
  2.21097957E-04 -3.07228272E+00 -1.49884761E+00  5.70697290E-04 -3.07228272E+00
 -1.49884761E+00  5.70697290E-04 -3.07228272E+00 -1.49884761E+00  5.70697290E-04
 -3.07228272E+00 -1.49884761E+00  5.70697290E-04 -3.07228272E+00 -1.49884761E+00
  5.70697290E-04  1.60818339E+00 -3.00023313E+00 -5.57469207E-04  1.60818339E+00
 -3.00023313E+00 -5.57469207E-04  1.60818339E+00 -3.00023313E+00 -5.57469207E-04
  1.60818339E+00 -3.00023313E+00 -5.57469207E-04  1.60818339E+00 -3.00023313E+00
 -5.57469207E-04  3.50849576E+00 -1.07164101E+00 -2.11649326E-04  3.50849576E+00
 -1.07164101E+00 -2.11649326E-04  3.50849576E+00 -1.07164101E+00 -2.11649326E-04
  3.50849576E+00 -1.07164101E+00 -2.11649326E-04  3.50849576E+00 -1.07164101E+00
 -2.11649326E-04  3.19901720E+00  1.60937958E+00  4.68652079E-04  3.19901720E+00
  1.60937958E+00  4.68652079E-04  3.19901720E+00  1.60937958E+00  4.68652079E-04
  3.19901720E+00  1.60937958E+00  4.68652079E-04  3.19901720E+00  1.60937958E+00
  4.68652079E-04  1.17947445E+00  3.40459295E+00  2.38105492E-04  1.17947445E+00
  3.40459295E+00  2.38105492E-04  1.17947445E+00  3.40459295E+00  2.38105492E-04
  1.17947445E+00  3.40459295E+00  2.38105492E-04  1.17947445E+00  3.40459295E+00
  2.38105492E-04
Num ILSW                                   I              100
ILSW                                       I   N=         100
           0           0           0           0           2           0
           0           0           0           0         402          -1
           5           0           0           0           0           0
           0           0           0           0           0           0
           1           1           0           0           0           0
           0           0      100000           0          -1           0
           0           0           0           0           0           0
           0           0           0           1           0           0
           0 -2000000000           1           0           0           0
           0           0           4          52           0           0
           0           0           5           0           0           0
           0           0           0          16           0           1
           0           0           0           0           0           0
           0           0           0           0           0           0
           0           0           0           0           0           0
           0           0           0           0           0           0
           0           0           0           0
Num RLSW                                   I               52
RLSW                                       R   N=          52
  8.00000000E-01  7.20000000E-01  1.00000000E+00  8.10000000E-01  2.00000000E-01
  0.00000000E+00  0.00000000E+00  1.00000000E+00  0.00000000E+00  0.00000000E+00
  0.00000000E+00  0.00000000E+00  1.00000000E+00  0.00000000E+00  0.00000000E+00
  0.00000000E+00  0.00000000E+00  1.00000000E+00  0.00000000E+00  0.00000000E+00
  0.00000000E+00  0.00000000E+00  1.00000000E+00  0.00000000E+00  0.00000000E+00
  0.00000000E+00  0.00000000E+00  1.00000000E+00  0.00000000E+00  0.00000000E+00
  0.00000000E+00  0.00000000E+00  1.00000000E+00  0.00000000E+00  0.00000000E+00
  0.00000000E+00  0.00000000E+00  0.00000000E+00  1.00000000E+00  1.00000000E+00
  0.00000000E+00  1.00000000E+00  0.00000000E+00  0.00000000E+00  0.00000000E+00
  0.00000000E+00  0.00000000E+00  0.00000000E+00  0.00000000E+00  0.00000000E+00
  0.00000000E+00  0.00000000E+00
MxBond                                     I                3
NBond                                      I   N=          16
           3           3           1           1           1           1
           1           1           1           1           3           3
           3           3           3           3
IBond                                      I   N=          48
           2           3          12           1          10          16
           1           0           0          12           0           0
          11           0           0          13           0           0
          14           0           0          15           0           0
          16           0           0           2           0           0
           5          12          13           1           4          11
           6          11          14           7          13          15
           8          14          16           2           9          15
RBond                                      R   N=          48
  2.00000000E+00  1.00000000E+00  1.00000000E+00  2.00000000E+00  1.00000000E+00
  1.00000000E+00  1.00000000E+00  0.00000000E+00  0.00000000E+00  1.00000000E+00
  0.00000000E+00  0.00000000E+00  1.00000000E+00  0.00000000E+00  0.00000000E+00
  1.00000000E+00  0.00000000E+00  0.00000000E+00  1.00000000E+00  0.00000000E+00
  0.00000000E+00  1.00000000E+00  0.00000000E+00  0.00000000E+00  1.00000000E+00
  0.00000000E+00  0.00000000E+00  1.00000000E+00  0.00000000E+00  0.00000000E+00
  1.00000000E+00  1.00000000E+00  1.00000000E+00  1.00000000E+00  1.00000000E+00
  1.00000000E+00  1.00000000E+00  1.00000000E+00  1.00000000E+00  1.00000000E+00
  1.00000000E+00  1.00000000E+00  1.00000000E+00  1.00000000E+00  1.00000000E+00
  1.00000000E+00  1.00000000E+00  1.00000000E+00
Virial Ratio                               R      2.004307123544200E+00
SCF Energy                                 R     -3.201027086997547E+02
Total Energy                               R     -3.201027086997547E+02
RMS Density                                R      3.377041758712419E-09
Job Status                                 I                1
Nuclear derivative order                   I                0
External E-field                           R   N=          35
  0.00000000E+00  0.00000000E+00  0.00000000E+00  0.00000000E+00  0.00000000E+00
  0.00000000E+00  0.00000000E+00  0.00000000E+00  0.00000000E+00  0.00000000E+00
  0.00000000E+00  0.00000000E+00  0.00000000E+00  0.00000000E+00  0.00000000E+00
  0.00000000E+00  0.00000000E+00  0.00000000E+00  0.00000000E+00  0.00000000E+00
  0.00000000E+00  0.00000000E+00  0.00000000E+00  0.00000000E+00  0.00000000E+00
  0.00000000E+00  0.00000000E+00  0.00000000E+00  0.00000000E+00  0.00000000E+00
  0.00000000E+00  0.00000000E+00  0.00000000E+00  0.00000000E+00  0.00000000E+00
IOpCl                                      I                0
IROHF                                      I                0
Alpha Orbital Energies                     R   N=         192
 -1.43300087E+01 -1.42992644E+01 -1.42935568E+01 -1.02205173E+01 -1.01353088E+01
 -6.75939768E+00 -6.75355850E+00 -6.73071406E+00 -9.23450614E-01 -8.73519325E-01
 -8.51904559E-01 -7.42549401E-01 -6.07688760E-01 -5.45196681E-01 -5.42530027E-01
 -5.25977908E-01 -4.90665442E-01 -4.59832734E-01 -4.50721014E-01 -4.10570658E-01
 -3.79283691E-01 -3.78267264E-01 -3.38965030E-01 -3.34614163E-01 -3.28753058E-01
 -3.11594180E-01 -2.99798660E-01 -2.25143554E-01 -6.27341433E-02  2.27812070E-02
  3.58940586E-02  5.01423306E-02  5.79091910E-02  6.41730891E-02  8.82117905E-02
  1.20806017E-01  1.22801381E-01  1.25525151E-01  1.29093751E-01  1.48361816E-01
  1.97040714E-01  2.15262582E-01  2.31585266E-01  2.35297300E-01  2.44692380E-01
  2.56608559E-01  2.74617524E-01  2.84808536E-01  2.91997876E-01  3.12534446E-01
  3.14413399E-01  3.33132542E-01  3.47573832E-01  3.52726474E-01  3.77396803E-01
  4.01844816E-01  4.16483796E-01  4.30852329E-01  4.44060340E-01  4.51655667E-01
  4.85958787E-01  4.98957054E-01  5.01626359E-01  5.29859282E-01  5.55180364E-01
  5.62007951E-01  5.82483329E-01  6.00936394E-01  6.39055908E-01  6.56576003E-01
  6.74064468E-01  6.79401868E-01  7.03007436E-01  7.16045213E-01  7.25555383E-01
  7.44331411E-01  7.60604399E-01  7.97148035E-01  8.02517837E-01  8.10784135E-01
  8.19844348E-01  8.30787533E-01  8.31890385E-01  8.63611293E-01  8.65244141E-01
  9.02463730E-01  9.55466566E-01  9.79610908E-01  9.81160401E-01  1.00391848E+00
  1.05428384E+00  1.06076192E+00  1.07623961E+00  1.07969505E+00  1.11240329E+00
  1.17814455E+00  1.18697137E+00  1.20592338E+00  1.20611427E+00  1.26630657E+00
  1.28485583E+00  1.30558966E+00  1.42780578E+00  1.43361574E+00  1.44135305E+00
  1.46339399E+00  1.46681024E+00  1.48657073E+00  1.52459680E+00  1.53610394E+00
  1.57355394E+00  1.64556164E+00  1.67440535E+00  1.68405711E+00  1.69258270E+00
  1.70905882E+00  1.74334728E+00  1.74873764E+00  1.76577405E+00  1.80352578E+00
  1.85242160E+00  1.85260827E+00  1.85664098E+00  1.88469742E+00  1.88975978E+00
  1.89349913E+00  1.93789355E+00  1.95816520E+00  1.97791347E+00  1.98537732E+00
  1.99275113E+00  2.00513536E+00  2.05524098E+00  2.06405180E+00  2.14494352E+00
  2.17205048E+00  2.27029708E+00  2.29814798E+00  2.34655538E+00  2.36449538E+00
  2.37704984E+00  2.38962896E+00  2.41794986E+00  2.44383423E+00  2.45354618E+00
  2.48660166E+00  2.50234720E+00  2.52470874E+00  2.53513314E+00  2.54618162E+00
  2.60057783E+00  2.60702942E+00  2.64770917E+00  2.68065219E+00  2.68784912E+00
  2.70013103E+00  2.72603831E+00  2.73490746E+00  2.73868797E+00  2.79737266E+00
  2.81088923E+00  2.83044378E+00  2.86361835E+00  2.88007056E+00  2.91899600E+00
  2.93516450E+00  2.96261420E+00  2.99253822E+00  3.14253304E+00  3.18838652E+00
  3.36718268E+00  3.38456251E+00  3.57237383E+00  3.75932924E+00  3.77481061E+00
  3.77600733E+00  3.80709593E+00  4.05133601E+00  4.50156143E+00  4.51510061E+00
  4.68316953E+00  4.78157217E+00  4.79253258E+00  4.96225954E+00  1.46648568E+01
  1.47484697E+01  1.48174375E+01  2.37014179E+01  2.42287012E+01  3.55473941E+01
  3.55554912E+01  3.55752208E+01
Alpha MO coefficients                      R   N=       36864
  4.10192739E-06  3.76184587E-05  2.18278209E-05 -4.38950621E-04  1.47776956E-07
  4.23278241E-04  5.55612009E-05  1.21014896E-03 -4.13425796E-07  1.55710701E-03
  3.97068213E-04 -4.97889552E-03  1.71434931E-06  1.67346909E-04  4.32481847E-08
  4.20258055E-07  9.81732813E-04  2.54839117E-04 -7.23136547E-06  4.05429858E-05
 -2.37761517E-05 -1.27268090E-04  3.04509093E-08 -2.12847151E-04  2.37055425E-04
  7.07404145E-04 -1.54325769E-07  2.35299732E-03 -2.25830008E-03 -2.70571234E-04
 -3.65806003E-07 -4.60853479E-05  1.38380114E-07  2.65051930E-08  3.22378169E-04
 -2.35200656E-04 -2.94393514E-04  1.82526151E-04  2.50672133E-04 -1.40338113E-04
  2.65066480E-04 -1.07836632E-07 -1.08184157E-04 -2.03883163E-03 -1.48376088E-04
 -1.66349718E-03 -6.68799282E-04  4.29242694E-07 -1.81583380E-04 -1.10548687E-03
  1.63239923E-03 -5.09169140E-05 -5.61385653E-04  6.83114014E-08 -2.22287721E-05
 -4.77906674E-04  5.14712629E-04 -1.44472882E-05 -4.40781982E-05 -8.58096105E-11