Title Card Required                                                     
SP        RB3LYP                                                      6-311G(d,p)         
Number of atoms                            I               16
Info1-9                                    I   N=           9
          23          23           0           0           0         110
           1          18        -502
Full Title                                 C   N=           2
Title Card Required     
Route                                      C   N=           5
#p b3lyp/6-311g(d,p) nosymm density=current pop=NBO         
Charge                                     I                0
Multiplicity                               I                1
Number of electrons                        I               56
Number of alpha electrons                  I               28
Number of beta electrons                   I               28
Number of basis functions                  I              192
Number of independent functions            I              192
Number of point charges in /Mol/           I                0
Number of translation vectors              I                0
Atomic numbers                             I   N=          16
           6           6           6           6           1           1
           1           1           1           1           6           1
           6           1           5           7
Nuclear charges                            R   N=          16
  6.00000000E+00  6.00000000E+00  6.00000000E+00  6.00000000E+00  1.00000000E+00
  1.00000000E+00  1.00000000E+00  1.00000000E+00  1.00000000E+00  1.00000000E+00
  6.00000000E+00  1.00000000E+00  6.00000000E+00  1.00000000E+00  5.00000000E+00
  7.00000000E+00
Current cartesian coordinates              R   N=          48
 -2.48057923E+00 -2.05832938E+00  7.64148553E-01  2.58948226E+00  2.16262336E+00
  6.09671001E-01 -1.94740057E-01 -3.13518981E+00  6.07545059E-01  2.06398155E+00
 -2.30870864E+00 -7.24774219E-01 -5.69676838E-02  5.33810025E+00  1.86824939E+00
 -3.87963797E+00 -3.04358345E+00  1.90960793E+00  7.55739272E-02 -4.93870285E+00
  1.56766766E+00  3.16795955E+00 -3.74147253E+00 -1.68864982E+00  5.00013407E+00
 -1.46909199E-01 -1.24759152E+00  4.28870509E+00  3.20202564E+00  1.10570899E+00
 -2.37019277E+00  2.44998646E+00 -6.68029523E-01 -3.35715137E+00  3.88746144E+00
 -1.77158801E+00 -3.42591662E+00  1.59046910E-01 -6.47875594E-01 -5.19673550E+00
 -1.84042317E-01 -1.64676782E+00  6.25556039E-02  3.35278044E+00  7.80530589E-01
  3.22187533E+00 -1.07623682E-01 -5.20487266E-01
Number of symbols in /Mol/                 I                0
Force Field                                I                0
Atom Types                                 C   N=          16
                                                            
                                                            
                                                            
            
Int Atom Types                             I   N=          16
           0           0           0           0           0           0
           0           0           0           0           0           0
           0           0           0           0
MM charges                                 R   N=          16
  0.00000000E+00  0.00000000E+00  0.00000000E+00  0.00000000E+00  0.00000000E+00
  0.00000000E+00  0.00000000E+00  0.00000000E+00  0.00000000E+00  0.00000000E+00
  0.00000000E+00  0.00000000E+00  0.00000000E+00  0.00000000E+00  0.00000000E+00
  0.00000000E+00
Integer atomic weights                     I   N=          16
          12          12          12          12           1           1
           1           1           1           1          12           1
          12           1          11          14
Real atomic weights                        R   N=          16
  1.20000000E+01  1.20000000E+01  1.20000000E+01  1.20000000E+01  1.00782504E+00
  1.00782504E+00  1.00782504E+00  1.00782504E+00  1.00782504E+00  1.00782504E+00
  1.20000000E+01  1.00782504E+00  1.20000000E+01  1.00782504E+00  1.10093053E+01
  1.40030740E+01
Atom fragment info                         I   N=          16
           0           0           0           0           0           0
           0           0           0           0           0           0
           0           0           0           0
Atom residue num                           I   N=          16
           0           0           0           0           0           0
           0           0           0           0           0           0
           0           0           0           0
Nuclear spins                              I   N=          16
           0           0           0           0           1           1
           1           1           1           1           0           1
           0           1           3           2
Nuclear ZEff                               R   N=          16
 -3.60000000E+00 -3.60000000E+00 -3.60000000E+00 -3.60000000E+00 -1.00000000E+00
 -1.00000000E+00 -1.00000000E+00 -1.00000000E+00 -1.00000000E+00 -1.00000000E+00
 -3.60000000E+00 -1.00000000E+00 -3.60000000E+00 -1.00000000E+00 -2.75000000E+00
 -4.55000000E+00
Nuclear ZNuc                               R   N=          16
  6.00000000E+00  6.00000000E+00  6.00000000E+00  6.00000000E+00  1.00000000E+00
  1.00000000E+00  1.00000000E+00  1.00000000E+00  1.00000000E+00  1.00000000E+00
  6.00000000E+00  1.00000000E+00  6.00000000E+00  1.00000000E+00  5.00000000E+00
  7.00000000E+00
Nuclear QMom                               R   N=          16
  0.00000000E+00  0.00000000E+00  0.00000000E+00  0.00000000E+00  0.00000000E+00
  0.00000000E+00  0.00000000E+00  0.00000000E+00  0.00000000E+00  0.00000000E+00
  0.00000000E+00  0.00000000E+00  0.00000000E+00  0.00000000E+00  4.05900000E+00
  2.04400000E+00
Nuclear GFac                               R   N=          16
  0.00000000E+00  0.00000000E+00  0.00000000E+00  0.00000000E+00  2.79284600E+00
  2.79284600E+00  2.79284600E+00  2.79284600E+00  2.79284600E+00  2.79284600E+00
  0.00000000E+00  2.79284600E+00  0.00000000E+00  2.79284600E+00  2.68863700E+00
  4.03761000E-01
MicOpt                                     I   N=          16
          -1          -1          -1          -1          -1          -1
          -1          -1          -1          -1          -1          -1
          -1          -1          -1          -1
Number of residues                         I                0
Number of secondary structures             I                0
Number of contracted shells                I               72
Number of primitive shells                 I              144
Pure/Cartesian d shells                    I                0
Pure/Cartesian f shells                    I                0
Highest angular momentum                   I                2
Largest degree of contraction              I                6
Shell types                                I   N=          72
           0          -1          -1          -1          -2           0
          -1          -1          -1          -2           0          -1
          -1          -1          -2           0          -1          -1
          -1          -2           0           0           0           1
           0           0           0           1           0           0
           0           1           0           0           0           1
           0           0           0           1           0           0
           0           1           0          -1          -1          -1
          -2           0           0           0           1           0
          -1          -1          -1          -2           0           0
           0           1           0          -1          -1          -1
          -2           0          -1          -1          -1          -2
Number of primitives per shell             I   N=          72
           6           3           1           1           1           6
           3           1           1           1           6           3
           1           1           1           6           3           1
           1           1           3           1           1           1
           3           1           1           1           3           1
           1           1           3           1           1           1
           3           1           1           1           3           1
           1           1           6           3           1           1
           1           3           1           1           1           6
           3           1           1           1           3           1
           1           1           6           3           1           1
           1           6           3           1           1           1
Shell to atom map                          I   N=          72
           1           1           1           1           1           2
           2           2           2           2           3           3
           3           3           3           4           4           4
           4           4           5           5           5           5
           6           6           6           6           7           7
           7           7           8           8           8           8
           9           9           9           9          10          10
          10          10          11          11          11          11
          11          12          12          12          12          13
          13          13          13          13          14          14
          14          14          15          15          15          15
          15          16          16          16          16          16
Primitive exponents                        R   N=         144
  4.56324000E+03  6.82024000E+02  1.54973000E+02  4.44553000E+01  1.30290000E+01
  1.82773000E+00  2.09642000E+01  4.80331000E+00  1.45933000E+00  4.83456000E-01
  1.45585000E-01  6.26000000E-01  4.56324000E+03  6.82024000E+02  1.54973000E+02
  4.44553000E+01  1.30290000E+01  1.82773000E+00  2.09642000E+01  4.80331000E+00
  1.45933000E+00  4.83456000E-01  1.45585000E-01  6.26000000E-01  4.56324000E+03
  6.82024000E+02  1.54973000E+02  4.44553000E+01  1.30290000E+01  1.82773000E+00
  2.09642000E+01  4.80331000E+00  1.45933000E+00  4.83456000E-01  1.45585000E-01
  6.26000000E-01  4.56324000E+03  6.82024000E+02  1.54973000E+02  4.44553000E+01
  1.30290000E+01  1.82773000E+00  2.09642000E+01  4.80331000E+00  1.45933000E+00
  4.83456000E-01  1.45585000E-01  6.26000000E-01  3.38650000E+01  5.09479000E+00
  1.15879000E+00  3.25840000E-01  1.02741000E-01  7.50000000E-01  3.38650000E+01
  5.09479000E+00  1.15879000E+00  3.25840000E-01  1.02741000E-01  7.50000000E-01
  3.38650000E+01  5.09479000E+00  1.15879000E+00  3.25840000E-01  1.02741000E-01
  7.50000000E-01  3.38650000E+01  5.09479000E+00  1.15879000E+00  3.25840000E-01
  1.02741000E-01  7.50000000E-01  3.38650000E+01  5.09479000E+00  1.15879000E+00
  3.25840000E-01  1.02741000E-01  7.50000000E-01  3.38650000E+01  5.09479000E+00
  1.15879000E+00  3.25840000E-01  1.02741000E-01  7.50000000E-01  4.56324000E+03
  6.82024000E+02  1.54973000E+02  4.44553000E+01  1.30290000E+01  1.82773000E+00
  2.09642000E+01  4.80331000E+00  1.45933000E+00  4.83456000E-01  1.45585000E-01
  6.26000000E-01  3.38650000E+01  5.09479000E+00  1.15879000E+00  3.25840000E-01
  1.02741000E-01  7.50000000E-01  4.56324000E+03  6.82024000E+02  1.54973000E+02
  4.44553000E+01  1.30290000E+01  1.82773000E+00  2.09642000E+01  4.80331000E+00
  1.45933000E+00  4.83456000E-01  1.45585000E-01  6.26000000E-01  3.38650000E+01
  5.09479000E+00  1.15879000E+00  3.25840000E-01  1.02741000E-01  7.50000000E-01
  2.85889000E+03  4.28140000E+02  9.75282000E+01  2.79693000E+01  8.21577000E+00
  1.11278000E+00  1.32415000E+01  3.00166000E+00  9.12856000E-01  3.15454000E-01
  9.88563000E-02  4.01000000E-01  6.29348000E+03  9.49044000E+02  2.18776000E+02
  6.36916000E+01  1.88282000E+01  2.72023000E+00  3.06331000E+01  7.02614000E+00
  2.11205000E+00  6.84009000E-01  2.00878000E-01  9.13000000E-01
Contraction coefficients                   R   N=         144
  1.96665025E-03  1.52306019E-02  7.61269097E-02  2.60801033E-01  6.16462078E-01
  2.21006028E-01  1.14660081E-01  9.19999648E-01 -3.03068213E-03  1.00000000E+00
  1.00000000E+00  1.00000000E+00  1.96665025E-03  1.52306019E-02  7.61269097E-02
  2.60801033E-01  6.16462078E-01  2.21006028E-01  1.14660081E-01  9.19999648E-01
 -3.03068213E-03  1.00000000E+00  1.00000000E+00  1.00000000E+00  1.96665025E-03
  1.52306019E-02  7.61269097E-02  2.60801033E-01  6.16462078E-01  2.21006028E-01
  1.14660081E-01  9.19999648E-01 -3.03068213E-03  1.00000000E+00  1.00000000E+00
  1.00000000E+00  1.96665025E-03  1.52306019E-02  7.61269097E-02  2.60801033E-01
  6.16462078E-01  2.21006028E-01  1.14660081E-01  9.19999648E-01 -3.03068213E-03
  1.00000000E+00  1.00000000E+00  1.00000000E+00  2.54938145E-02  1.90373109E-01
  8.52161486E-01  1.00000000E+00  1.00000000E+00  1.00000000E+00  2.54938145E-02
  1.90373109E-01  8.52161486E-01  1.00000000E+00  1.00000000E+00  1.00000000E+00
  2.54938145E-02  1.90373109E-01  8.52161486E-01  1.00000000E+00  1.00000000E+00
  1.00000000E+00  2.54938145E-02  1.90373109E-01  8.52161486E-01  1.00000000E+00
  1.00000000E+00  1.00000000E+00  2.54938145E-02  1.90373109E-01  8.52161486E-01
  1.00000000E+00  1.00000000E+00  1.00000000E+00  2.54938145E-02  1.90373109E-01
  8.52161486E-01  1.00000000E+00  1.00000000E+00  1.00000000E+00  1.96665025E-03
  1.52306019E-02  7.61269097E-02  2.60801033E-01  6.16462078E-01  2.21006028E-01
  1.14660081E-01  9.19999648E-01 -3.03068213E-03  1.00000000E+00  1.00000000E+00
  1.00000000E+00  2.54938145E-02  1.90373109E-01  8.52161486E-01  1.00000000E+00
  1.00000000E+00  1.00000000E+00  1.96665025E-03  1.52306019E-02  7.61269097E-02
  2.60801033E-01  6.16462078E-01  2.21006028E-01  1.14660081E-01  9.19999648E-01
 -3.03068213E-03  1.00000000E+00  1.00000000E+00  1.00000000E+00  2.54938145E-02
  1.90373109E-01  8.52161486E-01  1.00000000E+00  1.00000000E+00  1.00000000E+00
  2.15374907E-03  1.65822928E-02  8.21869644E-02  2.76617880E-01  6.29315727E-01
  1.73769925E-01  1.17442942E-01  9.18001549E-01 -2.65104870E-03  1.00000000E+00
  1.00000000E+00  1.00000000E+00  1.96978815E-03  1.49612859E-02  7.35005308E-02
  2.48936766E-01  6.02459433E-01  2.56201759E-01  1.11906080E-01  9.21666655E-01
 -2.56919183E-03  1.00000000E+00  1.00000000E+00  1.00000000E+00
P(S=P) Contraction coefficients            R   N=         144
  0.00000000E+00  0.00000000E+00  0.00000000E+00  0.00000000E+00  0.00000000E+00
  0.00000000E+00  4.02486927E-02  2.37593957E-01  8.15853851E-01  1.00000000E+00
  1.00000000E+00  0.00000000E+00  0.00000000E+00  0.00000000E+00  0.00000000E+00
  0.00000000E+00  0.00000000E+00  0.00000000E+00  4.02486927E-02  2.37593957E-01
  8.15853851E-01  1.00000000E+00  1.00000000E+00  0.00000000E+00  0.00000000E+00
  0.00000000E+00  0.00000000E+00  0.00000000E+00  0.00000000E+00  0.00000000E+00
  4.02486927E-02  2.37593957E-01  8.15853851E-01  1.00000000E+00  1.00000000E+00
  0.00000000E+00  0.00000000E+00  0.00000000E+00  0.00000000E+00  0.00000000E+00
  0.00000000E+00  0.00000000E+00  4.02486927E-02  2.37593957E-01  8.15853851E-01
  1.00000000E+00  1.00000000E+00  0.00000000E+00  0.00000000E+00  0.00000000E+00
  0.00000000E+00  0.00000000E+00  0.00000000E+00  0.00000000E+00  0.00000000E+00
  0.00000000E+00  0.00000000E+00  0.00000000E+00  0.00000000E+00  0.00000000E+00
  0.00000000E+00  0.00000000E+00  0.00000000E+00  0.00000000E+00  0.00000000E+00
  0.00000000E+00  0.00000000E+00  0.00000000E+00  0.00000000E+00  0.00000000E+00
  0.00000000E+00  0.00000000E+00  0.00000000E+00  0.00000000E+00  0.00000000E+00
  0.00000000E+00  0.00000000E+00  0.00000000E+00  0.00000000E+00  0.00000000E+00
  0.00000000E+00  0.00000000E+00  0.00000000E+00  0.00000000E+00  0.00000000E+00
  0.00000000E+00  0.00000000E+00  0.00000000E+00  0.00000000E+00  0.00000000E+00
  4.02486927E-02  2.37593957E-01  8.15853851E-01  1.00000000E+00  1.00000000E+00
  0.00000000E+00  0.00000000E+00  0.00000000E+00  0.00000000E+00  0.00000000E+00
  0.00000000E+00  0.00000000E+00  0.00000000E+00  0.00000000E+00  0.00000000E+00
  0.00000000E+00  0.00000000E+00  0.00000000E+00  4.02486927E-02  2.37593957E-01
  8.15853851E-01  1.00000000E+00  1.00000000E+00  0.00000000E+00  0.00000000E+00
  0.00000000E+00  0.00000000E+00  0.00000000E+00  0.00000000E+00  0.00000000E+00
  0.00000000E+00  0.00000000E+00  0.00000000E+00  0.00000000E+00  0.00000000E+00
  0.00000000E+00  4.18099989E-02  2.36574994E-01  8.16213978E-01  1.00000000E+00
  1.00000000E+00  0.00000000E+00  0.00000000E+00  0.00000000E+00  0.00000000E+00
  0.00000000E+00  0.00000000E+00  0.00000000E+00  3.83119186E-02  2.37403116E-01
  8.17592398E-01  1.00000000E+00  1.00000000E+00  0.00000000E+00
Coordinates of each shell                  R   N=         216
 -2.48057923E+00 -2.05832938E+00  7.64148553E-01 -2.48057923E+00 -2.05832938E+00
  7.64148553E-01 -2.48057923E+00 -2.05832938E+00  7.64148553E-01 -2.48057923E+00
 -2.05832938E+00  7.64148553E-01 -2.48057923E+00 -2.05832938E+00  7.64148553E-01
  2.58948226E+00  2.16262336E+00  6.09671001E-01  2.58948226E+00  2.16262336E+00
  6.09671001E-01  2.58948226E+00  2.16262336E+00  6.09671001E-01  2.58948226E+00
  2.16262336E+00  6.09671001E-01  2.58948226E+00  2.16262336E+00  6.09671001E-01
 -1.94740057E-01 -3.13518981E+00  6.07545059E-01 -1.94740057E-01 -3.13518981E+00
  6.07545059E-01 -1.94740057E-01 -3.13518981E+00  6.07545059E-01 -1.94740057E-01
 -3.13518981E+00  6.07545059E-01 -1.94740057E-01 -3.13518981E+00  6.07545059E-01
  2.06398155E+00 -2.30870864E+00 -7.24774219E-01  2.06398155E+00 -2.30870864E+00
 -7.24774219E-01  2.06398155E+00 -2.30870864E+00 -7.24774219E-01  2.06398155E+00
 -2.30870864E+00 -7.24774219E-01  2.06398155E+00 -2.30870864E+00 -7.24774219E-01
 -5.69676838E-02  5.33810025E+00  1.86824939E+00 -5.69676838E-02  5.33810025E+00
  1.86824939E+00 -5.69676838E-02  5.33810025E+00  1.86824939E+00 -5.69676838E-02
  5.33810025E+00  1.86824939E+00 -3.87963797E+00 -3.04358345E+00  1.90960793E+00
 -3.87963797E+00 -3.04358345E+00  1.90960793E+00 -3.87963797E+00 -3.04358345E+00
  1.90960793E+00 -3.87963797E+00 -3.04358345E+00  1.90960793E+00  7.55739272E-02
 -4.93870285E+00  1.56766766E+00  7.55739272E-02 -4.93870285E+00  1.56766766E+00
  7.55739272E-02 -4.93870285E+00  1.56766766E+00  7.55739272E-02 -4.93870285E+00
  1.56766766E+00  3.16795955E+00 -3.74147253E+00 -1.68864982E+00  3.16795955E+00
 -3.74147253E+00 -1.68864982E+00  3.16795955E+00 -3.74147253E+00 -1.68864982E+00
  3.16795955E+00 -3.74147253E+00 -1.68864982E+00  5.00013407E+00 -1.46909199E-01
 -1.24759152E+00  5.00013407E+00 -1.46909199E-01 -1.24759152E+00  5.00013407E+00
 -1.46909199E-01 -1.24759152E+00  5.00013407E+00 -1.46909199E-01 -1.24759152E+00
  4.28870509E+00  3.20202564E+00  1.10570899E+00  4.28870509E+00  3.20202564E+00
  1.10570899E+00  4.28870509E+00  3.20202564E+00  1.10570899E+00  4.28870509E+00
  3.20202564E+00  1.10570899E+00 -2.37019277E+00  2.44998646E+00 -6.68029523E-01
 -2.37019277E+00  2.44998646E+00 -6.68029523E-01 -2.37019277E+00  2.44998646E+00
 -6.68029523E-01 -2.37019277E+00  2.44998646E+00 -6.68029523E-01 -2.37019277E+00
  2.44998646E+00 -6.68029523E-01 -3.35715137E+00  3.88746144E+00 -1.77158801E+00
 -3.35715137E+00  3.88746144E+00 -1.77158801E+00 -3.35715137E+00  3.88746144E+00
 -1.77158801E+00 -3.35715137E+00  3.88746144E+00 -1.77158801E+00 -3.42591662E+00
  1.59046910E-01 -6.47875594E-01 -3.42591662E+00  1.59046910E-01 -6.47875594E-01
 -3.42591662E+00  1.59046910E-01 -6.47875594E-01 -3.42591662E+00  1.59046910E-01
 -6.47875594E-01 -3.42591662E+00  1.59046910E-01 -6.47875594E-01 -5.19673550E+00
 -1.84042317E-01 -1.64676782E+00 -5.19673550E+00 -1.84042317E-01 -1.64676782E+00
 -5.19673550E+00 -1.84042317E-01 -1.64676782E+00 -5.19673550E+00 -1.84042317E-01
 -1.64676782E+00  6.25556039E-02  3.35278044E+00  7.80530589E-01  6.25556039E-02
  3.35278044E+00  7.80530589E-01  6.25556039E-02  3.35278044E+00  7.80530589E-01
  6.25556039E-02  3.35278044E+00  7.80530589E-01  6.25556039E-02  3.35278044E+00
  7.80530589E-01  3.22187533E+00 -1.07623682E-01 -5.20487266E-01  3.22187533E+00
 -1.07623682E-01 -5.20487266E-01  3.22187533E+00 -1.07623682E-01 -5.20487266E-01
  3.22187533E+00 -1.07623682E-01 -5.20487266E-01  3.22187533E+00 -1.07623682E-01
 -5.20487266E-01
Num ILSW                                   I              100
ILSW                                       I   N=         100
           0           0           0           0           2           0
           0           0           0           0         402          -1
           5           0           0           0           0           0
           0           0           0           0           0           0
           1           1           0           0           0           0
           0           0      100000           0          -1           0
           0           0           0           0           0           0
           0           0           0           1           0           0
           0 -2000000000           1           0           0           0
           0           0           4          52           0           0
           0           0           5           0           0           0
           0           0           0          16           0           1
           0           0           0           0           0           0
           0           0           0           0           0           0
           0           0           0           0           0           0
           0           0           0           0           0           0
           0           0           0           0
Num RLSW                                   I               52
RLSW                                       R   N=          52
  8.00000000E-01  7.20000000E-01  1.00000000E+00  8.10000000E-01  2.00000000E-01
  0.00000000E+00  0.00000000E+00  1.00000000E+00  0.00000000E+00  0.00000000E+00
  0.00000000E+00  0.00000000E+00  1.00000000E+00  0.00000000E+00  0.00000000E+00
  0.00000000E+00  0.00000000E+00  1.00000000E+00  0.00000000E+00  0.00000000E+00
  0.00000000E+00  0.00000000E+00  1.00000000E+00  0.00000000E+00  0.00000000E+00
  0.00000000E+00  0.00000000E+00  1.00000000E+00  0.00000000E+00  0.00000000E+00
  0.00000000E+00  0.00000000E+00  1.00000000E+00  0.00000000E+00  0.00000000E+00
  0.00000000E+00  0.00000000E+00  0.00000000E+00  1.00000000E+00  1.00000000E+00
  0.00000000E+00  1.00000000E+00  0.00000000E+00  0.00000000E+00  0.00000000E+00
  0.00000000E+00  0.00000000E+00  0.00000000E+00  0.00000000E+00  0.00000000E+00
  0.00000000E+00  0.00000000E+00
MxBond                                     I                3
NBond                                      I   N=          16
           3           3           3           3           1           1
           1           1           1           1           3           1
           3           1           3           3
IBond                                      I   N=          48
           3           6          13          10          15          16
           1           4           7           3           8          16
          15           0           0           1           0           0
           3           0           0           4           0           0
          16           0           0           2           0           0
          12          13          15          11           0           0
           1          11          14          13           0           0
           2           5          11           2           4           9
RBond                                      R   N=          48
  2.00000000E+00  1.00000000E+00  1.00000000E+00  1.00000000E+00  1.00000000E+00
  1.00000000E+00  2.00000000E+00  1.00000000E+00  1.00000000E+00  1.00000000E+00
  1.00000000E+00  1.50000000E+00  1.00000000E+00  0.00000000E+00  0.00000000E+00
  1.00000000E+00  0.00000000E+00  0.00000000E+00  1.00000000E+00  0.00000000E+00
  0.00000000E+00  1.00000000E+00  0.00000000E+00  0.00000000E+00  1.00000000E+00
  0.00000000E+00  0.00000000E+00  1.00000000E+00  0.00000000E+00  0.00000000E+00
  1.00000000E+00  2.00000000E+00  1.00000000E+00  1.00000000E+00  0.00000000E+00
  0.00000000E+00  1.00000000E+00  2.00000000E+00  1.00000000E+00  1.00000000E+00
  0.00000000E+00  0.00000000E+00  1.00000000E+00  1.00000000E+00  1.00000000E+00
  1.00000000E+00  1.50000000E+00  1.00000000E+00
Virial Ratio                               R      2.004437815998751E+00
SCF Energy                                 R     -3.130484475817432E+02
Total Energy                               R     -3.130484475817432E+02
RMS Density                                R      4.939614400338987E-09
Job Status                                 I                1
Nuclear derivative order                   I                0
External E-field                           R   N=          35
  0.00000000E+00  0.00000000E+00  0.00000000E+00  0.00000000E+00  0.00000000E+00
  0.00000000E+00  0.00000000E+00  0.00000000E+00  0.00000000E+00  0.00000000E+00
  0.00000000E+00  0.00000000E+00  0.00000000E+00  0.00000000E+00  0.00000000E+00
  0.00000000E+00  0.00000000E+00  0.00000000E+00  0.00000000E+00  0.00000000E+00
  0.00000000E+00  0.00000000E+00  0.00000000E+00  0.00000000E+00  0.00000000E+00
  0.00000000E+00  0.00000000E+00  0.00000000E+00  0.00000000E+00  0.00000000E+00
  0.00000000E+00  0.00000000E+00  0.00000000E+00  0.00000000E+00  0.00000000E+00
IOpCl                                      I                0
IROHF                                      I                0
Alpha Orbital Energies                     R   N=         192
 -1.44092175E+01 -1.02325912E+01 -1.01886257E+01 -1.01863559E+01 -1.01660376E+01
 -1.01565613E+01 -1.01410491E+01 -6.68942545E+00 -9.92148828E-01 -8.14833070E-01
 -7.59995160E-01 -7.12836429E-01 -6.55846628E-01 -5.90384021E-01 -5.60568234E-01
 -5.34388864E-01 -4.86017742E-01 -4.62177866E-01 -4.39177328E-01 -4.33883282E-01
 -4.30730494E-01 -3.85548517E-01 -3.58449079E-01 -3.26364600E-01 -3.02906255E-01
 -2.92810733E-01 -2.49388015E-01 -1.88344435E-01 -7.88458042E-02  1.91296064E-03
  1.36064860E-02  2.67143974E-02  5.90432451E-02  7.30797595E-02  9.24012577E-02
  9.34773469E-02  1.09458370E-01  1.20861849E-01  1.31133629E-01  1.58274968E-01
  1.98472141E-01  2.31925882E-01  2.44769649E-01  2.71635991E-01  3.01423433E-01
  3.08813253E-01  3.14552022E-01  3.19834068E-01  3.33819985E-01  3.54103154E-01
  3.67835667E-01  3.71209142E-01  3.89758833E-01  4.11124733E-01  4.26010620E-01
  4.28152841E-01  4.54142139E-01  4.65517936E-01  4.76694358E-01  4.83623523E-01
  4.98821840E-01  5.06687461E-01  5.11586604E-01  5.30019586E-01  5.40074247E-01
  5.70924324E-01  5.78502671E-01  5.95541481E-01  6.01903807E-01  6.04193258E-01
  6.16853636E-01  6.25193695E-01  6.32613405E-01  6.55728654E-01  6.79286587E-01
  7.02853397E-01  7.24876486E-01  7.43049775E-01  7.83814322E-01  7.99972914E-01
  8.10862919E-01  8.16297878E-01  8.46579760E-01  8.69117855E-01  9.26116520E-01
  9.37146559E-01  9.53184373E-01  1.01584574E+00  1.04042851E+00  1.08034965E+00
  1.11134910E+00  1.11447740E+00  1.15002855E+00  1.20845543E+00  1.23823326E+00
  1.25758954E+00  1.26707794E+00  1.29864920E+00  1.33051226E+00  1.38970200E+00
  1.42408138E+00  1.44115094E+00  1.46504133E+00  1.47291958E+00  1.49697278E+00
  1.50777449E+00  1.52877388E+00  1.53919912E+00  1.58754987E+00  1.58961766E+00
  1.61694793E+00  1.66875652E+00  1.68329627E+00  1.68579858E+00  1.70532041E+00
  1.73039742E+00  1.75433609E+00  1.77932810E+00  1.78884659E+00  1.79207759E+00
  1.82356232E+00  1.83787576E+00  1.83886528E+00  1.85879371E+00  1.88969530E+00
  1.91353108E+00  1.92390635E+00  1.95979175E+00  1.97823075E+00  2.00094366E+00
  2.06127465E+00  2.07105482E+00  2.09553349E+00  2.12669329E+00  2.14535114E+00
  2.19669878E+00  2.23870711E+00  2.24747259E+00  2.25930318E+00  2.32297468E+00
  2.33459782E+00  2.36096962E+00  2.38520032E+00  2.43397618E+00  2.48817931E+00
  2.50864807E+00  2.54085844E+00  2.55686757E+00  2.56516638E+00  2.58338358E+00
  2.60919353E+00  2.61365903E+00  2.64637671E+00  2.65617638E+00  2.66698868E+00
  2.69057905E+00  2.71090724E+00  2.73774601E+00  2.76403505E+00  2.79355274E+00
  2.81719219E+00  2.85286253E+00  2.86713931E+00  2.90037060E+00  2.93727392E+00
  2.96459407E+00  3.01180540E+00  3.07572432E+00  3.11734347E+00  3.29020069E+00
  3.36418294E+00  3.47586847E+00  3.51746058E+00  3.59545621E+00  3.63222479E+00
  3.71064674E+00  3.76778302E+00  3.79536055E+00  3.89736724E+00  3.93005524E+00
  4.05554848E+00  4.31015981E+00  4.73516902E+00  5.03684586E+00  1.47062098E+01
  2.36113666E+01  2.37648725E+01  2.38602384E+01  2.39269742E+01  2.42138899E+01
  2.43137472E+01  3.55505027E+01
Alpha MO coefficients                      R   N=       36864
 -3.25780484E-06  1.59929271E-05  2.58610848E-05 -1.72646082E-06  3.33893210E-05
 -1.15058093E-04 -2.34531336E-04  6.03492539E-05 -1.18922919E-04  2.55145893E-03
  1.15973870E-03  7.46701239E-05  3.99518664E-04  4.89362710E-05 -6.02648558E-05
 -3.18643809E-05 -9.53340241E-05  8.44684791E-05  3.05400850E-07  6.20767790E-05
  1.66553361E-04 -3.82939503E-04 -2.01980109E-04  1.79309939E-04 -6.17127122E-04
  1.07942740E-03  5.61408668E-04  4.83884491E-03 -1.25809216E-03 -3.80468135E-03
 -1.98770659E-03 -1.02223423E-04  3.68700368E-04 -4.88265456E-04  7.08148654E-04
  3.90044879E-04 -5.51928744E-06  3.80672402E-05  1.18144501E-04  6.64975536E-05
 -6.22274129E-05 -6.56530275E-05 -7.05045787E-04 -3.07425987E-04  3.59101106E-04
 -2.19388765E-03  1.15801524E-03 -1.70980736E-03 -5.69279139E-04  7.97738231E-05
  2.29495366E-05  1.97801700E-04 -9.99527430E-05 -3.62041504E-04 -1.27639218E-05
  1.52774644E-04  2.73000556E-04  4.77064218E-04 -6.06106331E-06 -1.47187393E-04