Title Card Required                                                     
SP        UB3LYP                                                      6-311G(d,p)         
Number of atoms                            I               16
Info1-9                                    I   N=           9
          23          23           0           0           0         110
           1          18        -502
Full Title                                 C   N=           2
Title Card Required     
Route                                      C   N=           4
#p ub3lyp/6-311g(d,p) nosymm density=current    
Charge                                     I                0
Multiplicity                               I                3
Number of electrons                        I               56
Number of alpha electrons                  I               29
Number of beta electrons                   I               27
Number of basis functions                  I              192
Number of independent functions            I              192
Number of point charges in /Mol/           I                0
Number of translation vectors              I                0
Atomic numbers                             I   N=          16
           6           6           6           6           1           1
           1           1           1           1           6           1
           6           1           5           7
Nuclear charges                            R   N=          16
  6.00000000E+00  6.00000000E+00  6.00000000E+00  6.00000000E+00  1.00000000E+00
  1.00000000E+00  1.00000000E+00  1.00000000E+00  1.00000000E+00  1.00000000E+00
  6.00000000E+00  1.00000000E+00  6.00000000E+00  1.00000000E+00  5.00000000E+00
  7.00000000E+00
Current cartesian coordinates              R   N=          48
  2.51226238E+00  2.37198801E+00  0.00000000E+00 -2.55077500E+00 -2.44558528E+00
  0.00000000E+00  0.00000000E+00  3.29361122E+00  0.00000000E+00 -2.41904597E+00
  2.34875761E+00  0.00000000E+00 -1.94547305E-02 -5.87136773E+00  0.00000000E+00
  3.87153104E+00  3.91183323E+00  0.00000000E+00 -5.89254400E-02  5.34604654E+00
  0.00000000E+00 -3.89646976E+00  3.76819704E+00  0.00000000E+00 -5.38100081E+00
  5.96303079E-02  0.00000000E+00 -4.12590708E+00 -3.76524907E+00  0.00000000E+00
  2.72318605E+00 -2.45917808E+00  0.00000000E+00  4.22299932E+00 -3.87116444E+00
  0.00000000E+00  3.67112181E+00 -1.80393256E-02  0.00000000E+00  5.72426389E+00
  1.25763163E-01  0.00000000E+00  7.29831127E-02 -3.60678041E+00  0.00000000E+00
 -3.47463376E+00 -3.13014235E-02  0.00000000E+00
Number of symbols in /Mol/                 I                0
Force Field                                I                0
Atom Types                                 C   N=          16
                                                            
                                                            
                                                            
            
Int Atom Types                             I   N=          16
           0           0           0           0           0           0
           0           0           0           0           0           0
           0           0           0           0
MM charges                                 R   N=          16
  0.00000000E+00  0.00000000E+00  0.00000000E+00  0.00000000E+00  0.00000000E+00
  0.00000000E+00  0.00000000E+00  0.00000000E+00  0.00000000E+00  0.00000000E+00
  0.00000000E+00  0.00000000E+00  0.00000000E+00  0.00000000E+00  0.00000000E+00
  0.00000000E+00
Integer atomic weights                     I   N=          16
          12          12          12          12           1           1
           1           1           1           1          12           1
          12           1          11          14
Real atomic weights                        R   N=          16
  1.20000000E+01  1.20000000E+01  1.20000000E+01  1.20000000E+01  1.00782504E+00
  1.00782504E+00  1.00782504E+00  1.00782504E+00  1.00782504E+00  1.00782504E+00
  1.20000000E+01  1.00782504E+00  1.20000000E+01  1.00782504E+00  1.10093053E+01
  1.40030740E+01
Atom fragment info                         I   N=          16
           0           0           0           0           0           0
           0           0           0           0           0           0
           0           0           0           0
Atom residue num                           I   N=          16
           0           0           0           0           0           0
           0           0           0           0           0           0
           0           0           0           0
Nuclear spins                              I   N=          16
           0           0           0           0           1           1
           1           1           1           1           0           1
           0           1           3           2
Nuclear ZEff                               R   N=          16
 -3.60000000E+00 -3.60000000E+00 -3.60000000E+00 -3.60000000E+00 -1.00000000E+00
 -1.00000000E+00 -1.00000000E+00 -1.00000000E+00 -1.00000000E+00 -1.00000000E+00
 -3.60000000E+00 -1.00000000E+00 -3.60000000E+00 -1.00000000E+00 -2.75000000E+00
 -4.55000000E+00
Nuclear ZNuc                               R   N=          16
  6.00000000E+00  6.00000000E+00  6.00000000E+00  6.00000000E+00  1.00000000E+00
  1.00000000E+00  1.00000000E+00  1.00000000E+00  1.00000000E+00  1.00000000E+00
  6.00000000E+00  1.00000000E+00  6.00000000E+00  1.00000000E+00  5.00000000E+00
  7.00000000E+00
Nuclear QMom                               R   N=          16
  0.00000000E+00  0.00000000E+00  0.00000000E+00  0.00000000E+00  0.00000000E+00
  0.00000000E+00  0.00000000E+00  0.00000000E+00  0.00000000E+00  0.00000000E+00
  0.00000000E+00  0.00000000E+00  0.00000000E+00  0.00000000E+00  4.05900000E+00
  2.04400000E+00
Nuclear GFac                               R   N=          16
  0.00000000E+00  0.00000000E+00  0.00000000E+00  0.00000000E+00  2.79284600E+00
  2.79284600E+00  2.79284600E+00  2.79284600E+00  2.79284600E+00  2.79284600E+00
  0.00000000E+00  2.79284600E+00  0.00000000E+00  2.79284600E+00  2.68863700E+00
  4.03761000E-01
MicOpt                                     I   N=          16
          -1          -1          -1          -1          -1          -1
          -1          -1          -1          -1          -1          -1
          -1          -1          -1          -1
Number of residues                         I                0
Number of secondary structures             I                0
Number of contracted shells                I               72
Number of primitive shells                 I              144
Pure/Cartesian d shells                    I                0
Pure/Cartesian f shells                    I                0
Highest angular momentum                   I                2
Largest degree of contraction              I                6
Shell types                                I   N=          72
           0          -1          -1          -1          -2           0
          -1          -1          -1          -2           0          -1
          -1          -1          -2           0          -1          -1
          -1          -2           0           0           0           1
           0           0           0           1           0           0
           0           1           0           0           0           1
           0           0           0           1           0           0
           0           1           0          -1          -1          -1
          -2           0           0           0           1           0
          -1          -1          -1          -2           0           0
           0           1           0          -1          -1          -1
          -2           0          -1          -1          -1          -2
Number of primitives per shell             I   N=          72
           6           3           1           1           1           6
           3           1           1           1           6           3
           1           1           1           6           3           1
           1           1           3           1           1           1
           3           1           1           1           3           1
           1           1           3           1           1           1
           3           1           1           1           3           1
           1           1           6           3           1           1
           1           3           1           1           1           6
           3           1           1           1           3           1
           1           1           6           3           1           1
           1           6           3           1           1           1
Shell to atom map                          I   N=          72
           1           1           1           1           1           2
           2           2           2           2           3           3
           3           3           3           4           4           4
           4           4           5           5           5           5
           6           6           6           6           7           7
           7           7           8           8           8           8
           9           9           9           9          10          10
          10          10          11          11          11          11
          11          12          12          12          12          13
          13          13          13          13          14          14
          14          14          15          15          15          15
          15          16          16          16          16          16
Primitive exponents                        R   N=         144
  4.56324000E+03  6.82024000E+02  1.54973000E+02  4.44553000E+01  1.30290000E+01
  1.82773000E+00  2.09642000E+01  4.80331000E+00  1.45933000E+00  4.83456000E-01
  1.45585000E-01  6.26000000E-01  4.56324000E+03  6.82024000E+02  1.54973000E+02
  4.44553000E+01  1.30290000E+01  1.82773000E+00  2.09642000E+01  4.80331000E+00
  1.45933000E+00  4.83456000E-01  1.45585000E-01  6.26000000E-01  4.56324000E+03
  6.82024000E+02  1.54973000E+02  4.44553000E+01  1.30290000E+01  1.82773000E+00
  2.09642000E+01  4.80331000E+00  1.45933000E+00  4.83456000E-01  1.45585000E-01
  6.26000000E-01  4.56324000E+03  6.82024000E+02  1.54973000E+02  4.44553000E+01
  1.30290000E+01  1.82773000E+00  2.09642000E+01  4.80331000E+00  1.45933000E+00
  4.83456000E-01  1.45585000E-01  6.26000000E-01  3.38650000E+01  5.09479000E+00
  1.15879000E+00  3.25840000E-01  1.02741000E-01  7.50000000E-01  3.38650000E+01
  5.09479000E+00  1.15879000E+00  3.25840000E-01  1.02741000E-01  7.50000000E-01
  3.38650000E+01  5.09479000E+00  1.15879000E+00  3.25840000E-01  1.02741000E-01
  7.50000000E-01  3.38650000E+01  5.09479000E+00  1.15879000E+00  3.25840000E-01
  1.02741000E-01  7.50000000E-01  3.38650000E+01  5.09479000E+00  1.15879000E+00
  3.25840000E-01  1.02741000E-01  7.50000000E-01  3.38650000E+01  5.09479000E+00
  1.15879000E+00  3.25840000E-01  1.02741000E-01  7.50000000E-01  4.56324000E+03
  6.82024000E+02  1.54973000E+02  4.44553000E+01  1.30290000E+01  1.82773000E+00
  2.09642000E+01  4.80331000E+00  1.45933000E+00  4.83456000E-01  1.45585000E-01
  6.26000000E-01  3.38650000E+01  5.09479000E+00  1.15879000E+00  3.25840000E-01
  1.02741000E-01  7.50000000E-01  4.56324000E+03  6.82024000E+02  1.54973000E+02
  4.44553000E+01  1.30290000E+01  1.82773000E+00  2.09642000E+01  4.80331000E+00
  1.45933000E+00  4.83456000E-01  1.45585000E-01  6.26000000E-01  3.38650000E+01
  5.09479000E+00  1.15879000E+00  3.25840000E-01  1.02741000E-01  7.50000000E-01
  2.85889000E+03  4.28140000E+02  9.75282000E+01  2.79693000E+01  8.21577000E+00
  1.11278000E+00  1.32415000E+01  3.00166000E+00  9.12856000E-01  3.15454000E-01
  9.88563000E-02  4.01000000E-01  6.29348000E+03  9.49044000E+02  2.18776000E+02
  6.36916000E+01  1.88282000E+01  2.72023000E+00  3.06331000E+01  7.02614000E+00
  2.11205000E+00  6.84009000E-01  2.00878000E-01  9.13000000E-01
Contraction coefficients                   R   N=         144
  1.96665025E-03  1.52306019E-02  7.61269097E-02  2.60801033E-01  6.16462078E-01
  2.21006028E-01  1.14660081E-01  9.19999648E-01 -3.03068213E-03  1.00000000E+00
  1.00000000E+00  1.00000000E+00  1.96665025E-03  1.52306019E-02  7.61269097E-02
  2.60801033E-01  6.16462078E-01  2.21006028E-01  1.14660081E-01  9.19999648E-01
 -3.03068213E-03  1.00000000E+00  1.00000000E+00  1.00000000E+00  1.96665025E-03
  1.52306019E-02  7.61269097E-02  2.60801033E-01  6.16462078E-01  2.21006028E-01
  1.14660081E-01  9.19999648E-01 -3.03068213E-03  1.00000000E+00  1.00000000E+00
  1.00000000E+00  1.96665025E-03  1.52306019E-02  7.61269097E-02  2.60801033E-01
  6.16462078E-01  2.21006028E-01  1.14660081E-01  9.19999648E-01 -3.03068213E-03
  1.00000000E+00  1.00000000E+00  1.00000000E+00  2.54938145E-02  1.90373109E-01
  8.52161486E-01  1.00000000E+00  1.00000000E+00  1.00000000E+00  2.54938145E-02
  1.90373109E-01  8.52161486E-01  1.00000000E+00  1.00000000E+00  1.00000000E+00
  2.54938145E-02  1.90373109E-01  8.52161486E-01  1.00000000E+00  1.00000000E+00
  1.00000000E+00  2.54938145E-02  1.90373109E-01  8.52161486E-01  1.00000000E+00
  1.00000000E+00  1.00000000E+00  2.54938145E-02  1.90373109E-01  8.52161486E-01
  1.00000000E+00  1.00000000E+00  1.00000000E+00  2.54938145E-02  1.90373109E-01
  8.52161486E-01  1.00000000E+00  1.00000000E+00  1.00000000E+00  1.96665025E-03
  1.52306019E-02  7.61269097E-02  2.60801033E-01  6.16462078E-01  2.21006028E-01
  1.14660081E-01  9.19999648E-01 -3.03068213E-03  1.00000000E+00  1.00000000E+00
  1.00000000E+00  2.54938145E-02  1.90373109E-01  8.52161486E-01  1.00000000E+00
  1.00000000E+00  1.00000000E+00  1.96665025E-03  1.52306019E-02  7.61269097E-02
  2.60801033E-01  6.16462078E-01  2.21006028E-01  1.14660081E-01  9.19999648E-01
 -3.03068213E-03  1.00000000E+00  1.00000000E+00  1.00000000E+00  2.54938145E-02
  1.90373109E-01  8.52161486E-01  1.00000000E+00  1.00000000E+00  1.00000000E+00
  2.15374907E-03  1.65822928E-02  8.21869644E-02  2.76617880E-01  6.29315727E-01
  1.73769925E-01  1.17442942E-01  9.18001549E-01 -2.65104870E-03  1.00000000E+00
  1.00000000E+00  1.00000000E+00  1.96978815E-03  1.49612859E-02  7.35005308E-02
  2.48936766E-01  6.02459433E-01  2.56201759E-01  1.11906080E-01  9.21666655E-01
 -2.56919183E-03  1.00000000E+00  1.00000000E+00  1.00000000E+00
P(S=P) Contraction coefficients            R   N=         144
  0.00000000E+00  0.00000000E+00  0.00000000E+00  0.00000000E+00  0.00000000E+00
  0.00000000E+00  4.02486927E-02  2.37593957E-01  8.15853851E-01  1.00000000E+00
  1.00000000E+00  0.00000000E+00  0.00000000E+00  0.00000000E+00  0.00000000E+00
  0.00000000E+00  0.00000000E+00  0.00000000E+00  4.02486927E-02  2.37593957E-01
  8.15853851E-01  1.00000000E+00  1.00000000E+00  0.00000000E+00  0.00000000E+00
  0.00000000E+00  0.00000000E+00  0.00000000E+00  0.00000000E+00  0.00000000E+00
  4.02486927E-02  2.37593957E-01  8.15853851E-01  1.00000000E+00  1.00000000E+00
  0.00000000E+00  0.00000000E+00  0.00000000E+00  0.00000000E+00  0.00000000E+00
  0.00000000E+00  0.00000000E+00  4.02486927E-02  2.37593957E-01  8.15853851E-01
  1.00000000E+00  1.00000000E+00  0.00000000E+00  0.00000000E+00  0.00000000E+00
  0.00000000E+00  0.00000000E+00  0.00000000E+00  0.00000000E+00  0.00000000E+00
  0.00000000E+00  0.00000000E+00  0.00000000E+00  0.00000000E+00  0.00000000E+00
  0.00000000E+00  0.00000000E+00  0.00000000E+00  0.00000000E+00  0.00000000E+00
  0.00000000E+00  0.00000000E+00  0.00000000E+00  0.00000000E+00  0.00000000E+00
  0.00000000E+00  0.00000000E+00  0.00000000E+00  0.00000000E+00  0.00000000E+00
  0.00000000E+00  0.00000000E+00  0.00000000E+00  0.00000000E+00  0.00000000E+00
  0.00000000E+00  0.00000000E+00  0.00000000E+00  0.00000000E+00  0.00000000E+00
  0.00000000E+00  0.00000000E+00  0.00000000E+00  0.00000000E+00  0.00000000E+00
  4.02486927E-02  2.37593957E-01  8.15853851E-01  1.00000000E+00  1.00000000E+00
  0.00000000E+00  0.00000000E+00  0.00000000E+00  0.00000000E+00  0.00000000E+00
  0.00000000E+00  0.00000000E+00  0.00000000E+00  0.00000000E+00  0.00000000E+00
  0.00000000E+00  0.00000000E+00  0.00000000E+00  4.02486927E-02  2.37593957E-01
  8.15853851E-01  1.00000000E+00  1.00000000E+00  0.00000000E+00  0.00000000E+00
  0.00000000E+00  0.00000000E+00  0.00000000E+00  0.00000000E+00  0.00000000E+00
  0.00000000E+00  0.00000000E+00  0.00000000E+00  0.00000000E+00  0.00000000E+00
  0.00000000E+00  4.18099989E-02  2.36574994E-01  8.16213978E-01  1.00000000E+00
  1.00000000E+00  0.00000000E+00  0.00000000E+00  0.00000000E+00  0.00000000E+00
  0.00000000E+00  0.00000000E+00  0.00000000E+00  3.83119186E-02  2.37403116E-01
  8.17592398E-01  1.00000000E+00  1.00000000E+00  0.00000000E+00
Coordinates of each shell                  R   N=         216
  2.51226238E+00  2.37198801E+00  0.00000000E+00  2.51226238E+00  2.37198801E+00
  0.00000000E+00  2.51226238E+00  2.37198801E+00  0.00000000E+00  2.51226238E+00
  2.37198801E+00  0.00000000E+00  2.51226238E+00  2.37198801E+00  0.00000000E+00
 -2.55077500E+00 -2.44558528E+00  0.00000000E+00 -2.55077500E+00 -2.44558528E+00
  0.00000000E+00 -2.55077500E+00 -2.44558528E+00  0.00000000E+00 -2.55077500E+00
 -2.44558528E+00  0.00000000E+00 -2.55077500E+00 -2.44558528E+00  0.00000000E+00
  0.00000000E+00  3.29361122E+00  0.00000000E+00  0.00000000E+00  3.29361122E+00
  0.00000000E+00  0.00000000E+00  3.29361122E+00  0.00000000E+00  0.00000000E+00
  3.29361122E+00  0.00000000E+00  0.00000000E+00  3.29361122E+00  0.00000000E+00
 -2.41904597E+00  2.34875761E+00  0.00000000E+00 -2.41904597E+00  2.34875761E+00
  0.00000000E+00 -2.41904597E+00  2.34875761E+00  0.00000000E+00 -2.41904597E+00
  2.34875761E+00  0.00000000E+00 -2.41904597E+00  2.34875761E+00  0.00000000E+00
 -1.94547305E-02 -5.87136773E+00  0.00000000E+00 -1.94547305E-02 -5.87136773E+00
  0.00000000E+00 -1.94547305E-02 -5.87136773E+00  0.00000000E+00 -1.94547305E-02
 -5.87136773E+00  0.00000000E+00  3.87153104E+00  3.91183323E+00  0.00000000E+00
  3.87153104E+00  3.91183323E+00  0.00000000E+00  3.87153104E+00  3.91183323E+00
  0.00000000E+00  3.87153104E+00  3.91183323E+00  0.00000000E+00 -5.89254400E-02
  5.34604654E+00  0.00000000E+00 -5.89254400E-02  5.34604654E+00  0.00000000E+00
 -5.89254400E-02  5.34604654E+00  0.00000000E+00 -5.89254400E-02  5.34604654E+00
  0.00000000E+00 -3.89646976E+00  3.76819704E+00  0.00000000E+00 -3.89646976E+00
  3.76819704E+00  0.00000000E+00 -3.89646976E+00  3.76819704E+00  0.00000000E+00
 -3.89646976E+00  3.76819704E+00  0.00000000E+00 -5.38100081E+00  5.96303079E-02
  0.00000000E+00 -5.38100081E+00  5.96303079E-02  0.00000000E+00 -5.38100081E+00
  5.96303079E-02  0.00000000E+00 -5.38100081E+00  5.96303079E-02  0.00000000E+00
 -4.12590708E+00 -3.76524907E+00  0.00000000E+00 -4.12590708E+00 -3.76524907E+00
  0.00000000E+00 -4.12590708E+00 -3.76524907E+00  0.00000000E+00 -4.12590708E+00
 -3.76524907E+00  0.00000000E+00  2.72318605E+00 -2.45917808E+00  0.00000000E+00
  2.72318605E+00 -2.45917808E+00  0.00000000E+00  2.72318605E+00 -2.45917808E+00
  0.00000000E+00  2.72318605E+00 -2.45917808E+00  0.00000000E+00  2.72318605E+00
 -2.45917808E+00  0.00000000E+00  4.22299932E+00 -3.87116444E+00  0.00000000E+00
  4.22299932E+00 -3.87116444E+00  0.00000000E+00  4.22299932E+00 -3.87116444E+00
  0.00000000E+00  4.22299932E+00 -3.87116444E+00  0.00000000E+00  3.67112181E+00
 -1.80393256E-02  0.00000000E+00  3.67112181E+00 -1.80393256E-02  0.00000000E+00
  3.67112181E+00 -1.80393256E-02  0.00000000E+00  3.67112181E+00 -1.80393256E-02
  0.00000000E+00  3.67112181E+00 -1.80393256E-02  0.00000000E+00  5.72426389E+00
  1.25763163E-01  0.00000000E+00  5.72426389E+00  1.25763163E-01  0.00000000E+00
  5.72426389E+00  1.25763163E-01  0.00000000E+00  5.72426389E+00  1.25763163E-01
  0.00000000E+00  7.29831127E-02 -3.60678041E+00  0.00000000E+00  7.29831127E-02
 -3.60678041E+00  0.00000000E+00  7.29831127E-02 -3.60678041E+00  0.00000000E+00
  7.29831127E-02 -3.60678041E+00  0.00000000E+00  7.29831127E-02 -3.60678041E+00
  0.00000000E+00 -3.47463376E+00 -3.13014235E-02  0.00000000E+00 -3.47463376E+00
 -3.13014235E-02  0.00000000E+00 -3.47463376E+00 -3.13014235E-02  0.00000000E+00
 -3.47463376E+00 -3.13014235E-02  0.00000000E+00 -3.47463376E+00 -3.13014235E-02
  0.00000000E+00
Num ILSW                                   I              100
ILSW                                       I   N=         100
           1           0           0           0           2           0
           0           0           0           0         402          -1
           5           0           0           0           0           0
           0           0           0           0           0           0
           1           1           0           0           0           0
           0           0      100000           0          -1           0
           0           0           0           0           0           0
           0           0           0           1           0           0
           0 -2000000000           1           0           0           0
           0           0           4          52           0           0
           0           0           5           0           0           0
           0           0           0          16           0           1
           0           0           0           0           0           0
           0           0           0           0           0           0
           0           0           0           0           0           0
           0           0           0           0           0           0
           0           0           0           0
Num RLSW                                   I               52
RLSW                                       R   N=          52
  8.00000000E-01  7.20000000E-01  1.00000000E+00  8.10000000E-01  2.00000000E-01
  0.00000000E+00  0.00000000E+00  1.00000000E+00  0.00000000E+00  0.00000000E+00
  0.00000000E+00  0.00000000E+00  1.00000000E+00  0.00000000E+00  0.00000000E+00
  0.00000000E+00  0.00000000E+00  1.00000000E+00  0.00000000E+00  0.00000000E+00
  0.00000000E+00  0.00000000E+00  1.00000000E+00  0.00000000E+00  0.00000000E+00
  0.00000000E+00  0.00000000E+00  1.00000000E+00  0.00000000E+00  0.00000000E+00
  0.00000000E+00  0.00000000E+00  1.00000000E+00  0.00000000E+00  0.00000000E+00
  0.00000000E+00  0.00000000E+00  0.00000000E+00  1.00000000E+00  1.00000000E+00
  0.00000000E+00  1.00000000E+00  0.00000000E+00  0.00000000E+00  0.00000000E+00
  0.00000000E+00  0.00000000E+00  0.00000000E+00  0.00000000E+00  0.00000000E+00
  0.00000000E+00  0.00000000E+00
MxBond                                     I                3
NBond                                      I   N=          16
           3           3           3           3           1           1
           1           1           1           1           3           1
           3           1           3           3
IBond                                      I   N=          48
           3           6          13          10          15          16
           1           4           7           3           8          16
          15           0           0           1           0           0
           3           0           0           4           0           0
          16           0           0           2           0           0
          12          13          15          11           0           0
           1          11          14          13           0           0
           2           5          11           2           4           9
RBond                                      R   N=          48
  1.50000000E+00  1.00000000E+00  1.50000000E+00  1.00000000E+00  1.00000000E+00
  1.50000000E+00  1.50000000E+00  1.50000000E+00  1.00000000E+00  1.50000000E+00
  1.00000000E+00  1.00000000E+00  1.00000000E+00  0.00000000E+00  0.00000000E+00
  1.00000000E+00  0.00000000E+00  0.00000000E+00  1.00000000E+00  0.00000000E+00
  0.00000000E+00  1.00000000E+00  0.00000000E+00  0.00000000E+00  1.00000000E+00
  0.00000000E+00  0.00000000E+00  1.00000000E+00  0.00000000E+00  0.00000000E+00
  1.00000000E+00  1.50000000E+00  1.00000000E+00  1.00000000E+00  0.00000000E+00
  0.00000000E+00  1.50000000E+00  1.50000000E+00  1.00000000E+00  1.00000000E+00
  0.00000000E+00  0.00000000E+00  1.00000000E+00  1.00000000E+00  1.00000000E+00
  1.50000000E+00  1.00000000E+00  1.00000000E+00
Virial Ratio                               R      2.004415246894685E+00
SCF Energy                                 R     -3.130427143598466E+02
Total Energy                               R     -3.130427143598466E+02
S**2                                       R      2.008850500859911E+00
S**2 after annihilation                    R      2.000043077677059E+00
RMS Density                                R      8.006724909876274E-09
Job Status                                 I                1
Nuclear derivative order                   I                0
External E-field                           R   N=          35
  0.00000000E+00  0.00000000E+00  0.00000000E+00  0.00000000E+00  0.00000000E+00
  0.00000000E+00  0.00000000E+00  0.00000000E+00  0.00000000E+00  0.00000000E+00
  0.00000000E+00  0.00000000E+00  0.00000000E+00  0.00000000E+00  0.00000000E+00
  0.00000000E+00  0.00000000E+00  0.00000000E+00  0.00000000E+00  0.00000000E+00
  0.00000000E+00  0.00000000E+00  0.00000000E+00  0.00000000E+00  0.00000000E+00
  0.00000000E+00  0.00000000E+00  0.00000000E+00  0.00000000E+00  0.00000000E+00
  0.00000000E+00  0.00000000E+00  0.00000000E+00  0.00000000E+00  0.00000000E+00
IOpCl                                      I                1
IROHF                                      I                0
Alpha Orbital Energies                     R   N=         192
 -1.43874655E+01 -1.02309351E+01 -1.02013637E+01 -1.01852134E+01 -1.01831898E+01
 -1.01714351E+01 -1.01473598E+01 -6.69534648E+00 -9.82606574E-01 -8.15559321E-01
 -7.72600224E-01 -7.14368051E-01 -6.74607483E-01 -5.93236703E-01 -5.68445211E-01
 -5.46953120E-01 -4.84494387E-01 -4.63477489E-01 -4.40172341E-01 -4.29147995E-01
 -4.26965471E-01 -3.75480465E-01 -3.65533073E-01 -3.40716745E-01 -3.18565523E-01
 -3.04977133E-01 -2.94320375E-01 -1.93206996E-01 -1.79749284E-01 -9.24506408E-04
  3.28878264E-03  4.32897242E-02  4.42909689E-02  6.40334912E-02  9.86021395E-02
  1.02469015E-01  1.22268015E-01  1.38138375E-01  1.46352914E-01  1.71427763E-01
  1.81050019E-01  2.26782054E-01  2.38828487E-01  2.72180982E-01  2.82901294E-01
  2.85441678E-01  3.07204888E-01  3.16936505E-01  3.25163767E-01  3.35078819E-01
  3.48400954E-01  3.81718794E-01  3.87425267E-01  3.88903659E-01  4.18847030E-01
  4.27956939E-01  4.31000023E-01  4.39618281E-01  4.48112936E-01  4.82425318E-01
  4.95422459E-01  5.34652175E-01  5.45374893E-01  5.54211104E-01  5.59300804E-01
  5.81596250E-01  5.85971773E-01  5.95742247E-01  5.98037221E-01  6.14844281E-01
  6.28130268E-01  6.58214163E-01  6.83860984E-01  7.10815886E-01  7.25856870E-01
  7.39272010E-01  7.51356119E-01  7.54218257E-01  7.84423656E-01  8.01513309E-01
  8.03380591E-01  8.44955343E-01  8.83139552E-01  8.83943820E-01  9.01561836E-01
  9.75767401E-01  9.85518777E-01  1.01039556E+00  1.02824979E+00  1.03380320E+00
  1.06055506E+00  1.11823117E+00  1.12184864E+00  1.12203599E+00  1.13293640E+00
  1.15508440E+00  1.24051577E+00  1.29962510E+00  1.37530460E+00  1.38735220E+00
  1.40798033E+00  1.41135569E+00  1.45376728E+00  1.47651706E+00  1.49589194E+00
  1.50748982E+00  1.51082279E+00  1.55105933E+00  1.58135562E+00  1.60296952E+00
  1.64061692E+00  1.67128584E+00  1.67506477E+00  1.68080961E+00  1.69487323E+00
  1.73937325E+00  1.74133013E+00  1.77191998E+00  1.77744169E+00  1.81303325E+00
  1.83636625E+00  1.85065129E+00  1.85076044E+00  1.87333940E+00  1.87870374E+00
  1.89533214E+00  1.90063656E+00  1.95524224E+00  1.98402087E+00  2.01500678E+00
  2.04293653E+00  2.04544837E+00  2.05518883E+00  2.07548706E+00  2.17551640E+00
  2.18675533E+00  2.21503994E+00  2.23441549E+00  2.24257716E+00  2.26892615E+00
  2.33037646E+00  2.40946381E+00  2.42069112E+00  2.45391557E+00  2.50528287E+00
  2.51874714E+00  2.53712083E+00  2.55560213E+00  2.57235558E+00  2.59122595E+00
  2.61150697E+00  2.63205729E+00  2.65968593E+00  2.67038188E+00  2.69141142E+00
  2.71768676E+00  2.71860215E+00  2.72969768E+00  2.75455144E+00  2.78509488E+00
  2.80908675E+00  2.81075830E+00  2.85162118E+00  2.87569434E+00  2.92368495E+00
  2.92493042E+00  3.02476789E+00  3.08573723E+00  3.17104468E+00  3.32815788E+00
  3.36409387E+00  3.40061360E+00  3.45520011E+00  3.59250555E+00  3.63599666E+00
  3.68065562E+00  3.75369125E+00  3.84033432E+00  3.93331215E+00  3.97402314E+00
  4.07178108E+00  4.46380302E+00  4.77471711E+00  5.12271894E+00  1.47246978E+01
  2.35896494E+01  2.37943462E+01  2.38491412E+01  2.39740380E+01  2.41273030E+01
  2.42457850E+01  3.55602263E+01
Beta Orbital Energies                      R   N=         192
 -1.43835670E+01 -1.02269238E+01 -1.01943498E+01 -1.01824967E+01 -1.01793617E+01
 -1.01709966E+01 -1.01424838E+01 -6.69298427E+00 -9.71475253E-01 -8.04646580E-01
 -7.61186596E-01 -7.01861047E-01 -6.59280724E-01 -5.85783899E-01 -5.61897112E-01
 -5.36252595E-01 -4.81366994E-01 -4.56725175E-01 -4.36753795E-01 -4.22309009E-01
 -3.94620514E-01 -3.71537864E-01 -3.61226712E-01 -3.12222878E-01 -3.07437257E-01
 -3.01481057E-01 -2.53940500E-01 -1.05519329E-01 -1.03145327E-01  4.67068972E-03
  4.04598742E-02  4.53243600E-02  6.53466602E-02  7.83264962E-02  1.00024612E-01
  1.04690335E-01  1.25570276E-01  1.49253948E-01  1.71782222E-01  1.75261854E-01
  1.88429820E-01  2.31494199E-01  2.45703871E-01  2.76719070E-01  2.87952870E-01
  2.92198770E-01  3.22678031E-01  3.25808478E-01  3.30611348E-01  3.39885429E-01