Title Card Required                                                     
SP        UB3LYP                                                      6-311G(d,p)         
Number of atoms                            I               16
Info1-9                                    I   N=           9
          23          23           0           0           0         110
           1          18        -502
Full Title                                 C   N=           2
Title Card Required     
Route                                      C   N=           4
#p ub3lyp/6-311g(d,p) nosymm density=current    
Charge                                     I                0
Multiplicity                               I                1
Number of electrons                        I               56
Number of alpha electrons                  I               28
Number of beta electrons                   I               28
Number of basis functions                  I              192
Number of independent functions            I              192
Number of point charges in /Mol/           I                0
Number of translation vectors              I                0
Atomic numbers                             I   N=          16
           1           1           1           1           1           1
           1           1           7           7           7           7
           5           5           5           5
Nuclear charges                            R   N=          16
  1.00000000E+00  1.00000000E+00  1.00000000E+00  1.00000000E+00  1.00000000E+00
  1.00000000E+00  1.00000000E+00  1.00000000E+00  7.00000000E+00  7.00000000E+00
  7.00000000E+00  7.00000000E+00  5.00000000E+00  5.00000000E+00  5.00000000E+00
  5.00000000E+00
Current cartesian coordinates              R   N=          48
  1.95354596E+00  5.32906925E+00  0.00000000E+00 -1.95354596E+00  5.32906925E+00
  0.00000000E+00 -5.18751742E+00  2.54719775E+00  0.00000000E+00 -5.18751742E+00
 -2.54719775E+00  0.00000000E+00  1.95354596E+00 -5.32906925E+00  0.00000000E+00
 -1.95354596E+00 -5.32906925E+00  0.00000000E+00  5.18751742E+00 -2.54719775E+00
  0.00000000E+00  5.18751742E+00  2.54719775E+00  0.00000000E+00  1.26722955E+00
 -3.54392623E+00  0.00000000E+00 -1.26722955E+00 -3.54392623E+00  0.00000000E+00
 -1.26722955E+00  3.54392623E+00  0.00000000E+00  1.26722955E+00  3.54392623E+00
  0.00000000E+00  3.15620168E+00  1.54041592E+00  0.00000000E+00  3.15620168E+00
 -1.54041592E+00  0.00000000E+00 -3.15620168E+00  1.54041592E+00  0.00000000E+00
 -3.15620168E+00 -1.54041592E+00  0.00000000E+00
Number of symbols in /Mol/                 I                0
Force Field                                I                0
Atom Types                                 C   N=          16
                                                            
                                                            
                                                            
            
Int Atom Types                             I   N=          16
           0           0           0           0           0           0
           0           0           0           0           0           0
           0           0           0           0
MM charges                                 R   N=          16
  0.00000000E+00  0.00000000E+00  0.00000000E+00  0.00000000E+00  0.00000000E+00
  0.00000000E+00  0.00000000E+00  0.00000000E+00  0.00000000E+00  0.00000000E+00
  0.00000000E+00  0.00000000E+00  0.00000000E+00  0.00000000E+00  0.00000000E+00
  0.00000000E+00
Integer atomic weights                     I   N=          16
           1           1           1           1           1           1
           1           1          14          14          14          14
          11          11          11          11
Real atomic weights                        R   N=          16
  1.00782504E+00  1.00782504E+00  1.00782504E+00  1.00782504E+00  1.00782504E+00
  1.00782504E+00  1.00782504E+00  1.00782504E+00  1.40030740E+01  1.40030740E+01
  1.40030740E+01  1.40030740E+01  1.10093053E+01  1.10093053E+01  1.10093053E+01
  1.10093053E+01
Atom fragment info                         I   N=          16
           0           0           0           0           0           0
           0           0           0           0           0           0
           0           0           0           0
Atom residue num                           I   N=          16
           0           0           0           0           0           0
           0           0           0           0           0           0
           0           0           0           0
Nuclear spins                              I   N=          16
           1           1           1           1           1           1
           1           1           2           2           2           2
           3           3           3           3
Nuclear ZEff                               R   N=          16
 -1.00000000E+00 -1.00000000E+00 -1.00000000E+00 -1.00000000E+00 -1.00000000E+00
 -1.00000000E+00 -1.00000000E+00 -1.00000000E+00 -4.55000000E+00 -4.55000000E+00
 -4.55000000E+00 -4.55000000E+00 -2.75000000E+00 -2.75000000E+00 -2.75000000E+00
 -2.75000000E+00
Nuclear ZNuc                               R   N=          16
  1.00000000E+00  1.00000000E+00  1.00000000E+00  1.00000000E+00  1.00000000E+00
  1.00000000E+00  1.00000000E+00  1.00000000E+00  7.00000000E+00  7.00000000E+00
  7.00000000E+00  7.00000000E+00  5.00000000E+00  5.00000000E+00  5.00000000E+00
  5.00000000E+00
Nuclear QMom                               R   N=          16
  0.00000000E+00  0.00000000E+00  0.00000000E+00  0.00000000E+00  0.00000000E+00
  0.00000000E+00  0.00000000E+00  0.00000000E+00  2.04400000E+00  2.04400000E+00
  2.04400000E+00  2.04400000E+00  4.05900000E+00  4.05900000E+00  4.05900000E+00
  4.05900000E+00
Nuclear GFac                               R   N=          16
  2.79284600E+00  2.79284600E+00  2.79284600E+00  2.79284600E+00  2.79284600E+00
  2.79284600E+00  2.79284600E+00  2.79284600E+00  4.03761000E-01  4.03761000E-01
  4.03761000E-01  4.03761000E-01  2.68863700E+00  2.68863700E+00  2.68863700E+00
  2.68863700E+00
MicOpt                                     I   N=          16
          -1          -1          -1          -1          -1          -1
          -1          -1          -1          -1          -1          -1
          -1          -1          -1          -1
Number of residues                         I                0
Number of secondary structures             I                0
Number of contracted shells                I               72
Number of primitive shells                 I              144
Pure/Cartesian d shells                    I                0
Pure/Cartesian f shells                    I                0
Highest angular momentum                   I                2
Largest degree of contraction              I                6
Shell types                                I   N=          72
           0           0           0           1           0           0
           0           1           0           0           0           1
           0           0           0           1           0           0
           0           1           0           0           0           1
           0           0           0           1           0           0
           0           1           0          -1          -1          -1
          -2           0          -1          -1          -1          -2
           0          -1          -1          -1          -2           0
          -1          -1          -1          -2           0          -1
          -1          -1          -2           0          -1          -1
          -1          -2           0          -1          -1          -1
          -2           0          -1          -1          -1          -2
Number of primitives per shell             I   N=          72
           3           1           1           1           3           1
           1           1           3           1           1           1
           3           1           1           1           3           1
           1           1           3           1           1           1
           3           1           1           1           3           1
           1           1           6           3           1           1
           1           6           3           1           1           1
           6           3           1           1           1           6
           3           1           1           1           6           3
           1           1           1           6           3           1
           1           1           6           3           1           1
           1           6           3           1           1           1
Shell to atom map                          I   N=          72
           1           1           1           1           2           2
           2           2           3           3           3           3
           4           4           4           4           5           5
           5           5           6           6           6           6
           7           7           7           7           8           8
           8           8           9           9           9           9
           9          10          10          10          10          10
          11          11          11          11          11          12
          12          12          12          12          13          13
          13          13          13          14          14          14
          14          14          15          15          15          15
          15          16          16          16          16          16
Primitive exponents                        R   N=         144
  3.38650000E+01  5.09479000E+00  1.15879000E+00  3.25840000E-01  1.02741000E-01
  7.50000000E-01  3.38650000E+01  5.09479000E+00  1.15879000E+00  3.25840000E-01
  1.02741000E-01  7.50000000E-01  3.38650000E+01  5.09479000E+00  1.15879000E+00
  3.25840000E-01  1.02741000E-01  7.50000000E-01  3.38650000E+01  5.09479000E+00
  1.15879000E+00  3.25840000E-01  1.02741000E-01  7.50000000E-01  3.38650000E+01
  5.09479000E+00  1.15879000E+00  3.25840000E-01  1.02741000E-01  7.50000000E-01
  3.38650000E+01  5.09479000E+00  1.15879000E+00  3.25840000E-01  1.02741000E-01
  7.50000000E-01  3.38650000E+01  5.09479000E+00  1.15879000E+00  3.25840000E-01
  1.02741000E-01  7.50000000E-01  3.38650000E+01  5.09479000E+00  1.15879000E+00
  3.25840000E-01  1.02741000E-01  7.50000000E-01  6.29348000E+03  9.49044000E+02
  2.18776000E+02  6.36916000E+01  1.88282000E+01  2.72023000E+00  3.06331000E+01
  7.02614000E+00  2.11205000E+00  6.84009000E-01  2.00878000E-01  9.13000000E-01
  6.29348000E+03  9.49044000E+02  2.18776000E+02  6.36916000E+01  1.88282000E+01
  2.72023000E+00  3.06331000E+01  7.02614000E+00  2.11205000E+00  6.84009000E-01
  2.00878000E-01  9.13000000E-01  6.29348000E+03  9.49044000E+02  2.18776000E+02
  6.36916000E+01  1.88282000E+01  2.72023000E+00  3.06331000E+01  7.02614000E+00
  2.11205000E+00  6.84009000E-01  2.00878000E-01  9.13000000E-01  6.29348000E+03
  9.49044000E+02  2.18776000E+02  6.36916000E+01  1.88282000E+01  2.72023000E+00
  3.06331000E+01  7.02614000E+00  2.11205000E+00  6.84009000E-01  2.00878000E-01
  9.13000000E-01  2.85889000E+03  4.28140000E+02  9.75282000E+01  2.79693000E+01
  8.21577000E+00  1.11278000E+00  1.32415000E+01  3.00166000E+00  9.12856000E-01
  3.15454000E-01  9.88563000E-02  4.01000000E-01  2.85889000E+03  4.28140000E+02
  9.75282000E+01  2.79693000E+01  8.21577000E+00  1.11278000E+00  1.32415000E+01
  3.00166000E+00  9.12856000E-01  3.15454000E-01  9.88563000E-02  4.01000000E-01
  2.85889000E+03  4.28140000E+02  9.75282000E+01  2.79693000E+01  8.21577000E+00
  1.11278000E+00  1.32415000E+01  3.00166000E+00  9.12856000E-01  3.15454000E-01
  9.88563000E-02  4.01000000E-01  2.85889000E+03  4.28140000E+02  9.75282000E+01
  2.79693000E+01  8.21577000E+00  1.11278000E+00  1.32415000E+01  3.00166000E+00
  9.12856000E-01  3.15454000E-01  9.88563000E-02  4.01000000E-01
Contraction coefficients                   R   N=         144
  2.54938145E-02  1.90373109E-01  8.52161486E-01  1.00000000E+00  1.00000000E+00
  1.00000000E+00  2.54938145E-02  1.90373109E-01  8.52161486E-01  1.00000000E+00
  1.00000000E+00  1.00000000E+00  2.54938145E-02  1.90373109E-01  8.52161486E-01
  1.00000000E+00  1.00000000E+00  1.00000000E+00  2.54938145E-02  1.90373109E-01
  8.52161486E-01  1.00000000E+00  1.00000000E+00  1.00000000E+00  2.54938145E-02
  1.90373109E-01  8.52161486E-01  1.00000000E+00  1.00000000E+00  1.00000000E+00
  2.54938145E-02  1.90373109E-01  8.52161486E-01  1.00000000E+00  1.00000000E+00
  1.00000000E+00  2.54938145E-02  1.90373109E-01  8.52161486E-01  1.00000000E+00
  1.00000000E+00  1.00000000E+00  2.54938145E-02  1.90373109E-01  8.52161486E-01
  1.00000000E+00  1.00000000E+00  1.00000000E+00  1.96978815E-03  1.49612859E-02
  7.35005308E-02  2.48936766E-01  6.02459433E-01  2.56201759E-01  1.11906080E-01
  9.21666655E-01 -2.56919183E-03  1.00000000E+00  1.00000000E+00  1.00000000E+00
  1.96978815E-03  1.49612859E-02  7.35005308E-02  2.48936766E-01  6.02459433E-01
  2.56201759E-01  1.11906080E-01  9.21666655E-01 -2.56919183E-03  1.00000000E+00
  1.00000000E+00  1.00000000E+00  1.96978815E-03  1.49612859E-02  7.35005308E-02
  2.48936766E-01  6.02459433E-01  2.56201759E-01  1.11906080E-01  9.21666655E-01
 -2.56919183E-03  1.00000000E+00  1.00000000E+00  1.00000000E+00  1.96978815E-03
  1.49612859E-02  7.35005308E-02  2.48936766E-01  6.02459433E-01  2.56201759E-01
  1.11906080E-01  9.21666655E-01 -2.56919183E-03  1.00000000E+00  1.00000000E+00
  1.00000000E+00  2.15374907E-03  1.65822928E-02  8.21869644E-02  2.76617880E-01
  6.29315727E-01  1.73769925E-01  1.17442942E-01  9.18001549E-01 -2.65104870E-03
  1.00000000E+00  1.00000000E+00  1.00000000E+00  2.15374907E-03  1.65822928E-02
  8.21869644E-02  2.76617880E-01  6.29315727E-01  1.73769925E-01  1.17442942E-01
  9.18001549E-01 -2.65104870E-03  1.00000000E+00  1.00000000E+00  1.00000000E+00
  2.15374907E-03  1.65822928E-02  8.21869644E-02  2.76617880E-01  6.29315727E-01
  1.73769925E-01  1.17442942E-01  9.18001549E-01 -2.65104870E-03  1.00000000E+00
  1.00000000E+00  1.00000000E+00  2.15374907E-03  1.65822928E-02  8.21869644E-02
  2.76617880E-01  6.29315727E-01  1.73769925E-01  1.17442942E-01  9.18001549E-01
 -2.65104870E-03  1.00000000E+00  1.00000000E+00  1.00000000E+00
P(S=P) Contraction coefficients            R   N=         144
  0.00000000E+00  0.00000000E+00  0.00000000E+00  0.00000000E+00  0.00000000E+00
  0.00000000E+00  0.00000000E+00  0.00000000E+00  0.00000000E+00  0.00000000E+00
  0.00000000E+00  0.00000000E+00  0.00000000E+00  0.00000000E+00  0.00000000E+00
  0.00000000E+00  0.00000000E+00  0.00000000E+00  0.00000000E+00  0.00000000E+00
  0.00000000E+00  0.00000000E+00  0.00000000E+00  0.00000000E+00  0.00000000E+00
  0.00000000E+00  0.00000000E+00  0.00000000E+00  0.00000000E+00  0.00000000E+00
  0.00000000E+00  0.00000000E+00  0.00000000E+00  0.00000000E+00  0.00000000E+00
  0.00000000E+00  0.00000000E+00  0.00000000E+00  0.00000000E+00  0.00000000E+00
  0.00000000E+00  0.00000000E+00  0.00000000E+00  0.00000000E+00  0.00000000E+00
  0.00000000E+00  0.00000000E+00  0.00000000E+00  0.00000000E+00  0.00000000E+00
  0.00000000E+00  0.00000000E+00  0.00000000E+00  0.00000000E+00  3.83119186E-02
  2.37403116E-01  8.17592398E-01  1.00000000E+00  1.00000000E+00  0.00000000E+00
  0.00000000E+00  0.00000000E+00  0.00000000E+00  0.00000000E+00  0.00000000E+00
  0.00000000E+00  3.83119186E-02  2.37403116E-01  8.17592398E-01  1.00000000E+00
  1.00000000E+00  0.00000000E+00  0.00000000E+00  0.00000000E+00  0.00000000E+00
  0.00000000E+00  0.00000000E+00  0.00000000E+00  3.83119186E-02  2.37403116E-01
  8.17592398E-01  1.00000000E+00  1.00000000E+00  0.00000000E+00  0.00000000E+00
  0.00000000E+00  0.00000000E+00  0.00000000E+00  0.00000000E+00  0.00000000E+00
  3.83119186E-02  2.37403116E-01  8.17592398E-01  1.00000000E+00  1.00000000E+00
  0.00000000E+00  0.00000000E+00  0.00000000E+00  0.00000000E+00  0.00000000E+00
  0.00000000E+00  0.00000000E+00  4.18099989E-02  2.36574994E-01  8.16213978E-01
  1.00000000E+00  1.00000000E+00  0.00000000E+00  0.00000000E+00  0.00000000E+00
  0.00000000E+00  0.00000000E+00  0.00000000E+00  0.00000000E+00  4.18099989E-02
  2.36574994E-01  8.16213978E-01  1.00000000E+00  1.00000000E+00  0.00000000E+00
  0.00000000E+00  0.00000000E+00  0.00000000E+00  0.00000000E+00  0.00000000E+00
  0.00000000E+00  4.18099989E-02  2.36574994E-01  8.16213978E-01  1.00000000E+00
  1.00000000E+00  0.00000000E+00  0.00000000E+00  0.00000000E+00  0.00000000E+00
  0.00000000E+00  0.00000000E+00  0.00000000E+00  4.18099989E-02  2.36574994E-01
  8.16213978E-01  1.00000000E+00  1.00000000E+00  0.00000000E+00
Coordinates of each shell                  R   N=         216
  1.95354596E+00  5.32906925E+00  0.00000000E+00  1.95354596E+00  5.32906925E+00
  0.00000000E+00  1.95354596E+00  5.32906925E+00  0.00000000E+00  1.95354596E+00
  5.32906925E+00  0.00000000E+00 -1.95354596E+00  5.32906925E+00  0.00000000E+00
 -1.95354596E+00  5.32906925E+00  0.00000000E+00 -1.95354596E+00  5.32906925E+00
  0.00000000E+00 -1.95354596E+00  5.32906925E+00  0.00000000E+00 -5.18751742E+00
  2.54719775E+00  0.00000000E+00 -5.18751742E+00  2.54719775E+00  0.00000000E+00
 -5.18751742E+00  2.54719775E+00  0.00000000E+00 -5.18751742E+00  2.54719775E+00
  0.00000000E+00 -5.18751742E+00 -2.54719775E+00  0.00000000E+00 -5.18751742E+00
 -2.54719775E+00  0.00000000E+00 -5.18751742E+00 -2.54719775E+00  0.00000000E+00
 -5.18751742E+00 -2.54719775E+00  0.00000000E+00  1.95354596E+00 -5.32906925E+00
  0.00000000E+00  1.95354596E+00 -5.32906925E+00  0.00000000E+00  1.95354596E+00
 -5.32906925E+00  0.00000000E+00  1.95354596E+00 -5.32906925E+00  0.00000000E+00
 -1.95354596E+00 -5.32906925E+00  0.00000000E+00 -1.95354596E+00 -5.32906925E+00
  0.00000000E+00 -1.95354596E+00 -5.32906925E+00  0.00000000E+00 -1.95354596E+00
 -5.32906925E+00  0.00000000E+00  5.18751742E+00 -2.54719775E+00  0.00000000E+00
  5.18751742E+00 -2.54719775E+00  0.00000000E+00  5.18751742E+00 -2.54719775E+00
  0.00000000E+00  5.18751742E+00 -2.54719775E+00  0.00000000E+00  5.18751742E+00
  2.54719775E+00  0.00000000E+00  5.18751742E+00  2.54719775E+00  0.00000000E+00
  5.18751742E+00  2.54719775E+00  0.00000000E+00  5.18751742E+00  2.54719775E+00
  0.00000000E+00  1.26722955E+00 -3.54392623E+00  0.00000000E+00  1.26722955E+00
 -3.54392623E+00  0.00000000E+00  1.26722955E+00 -3.54392623E+00  0.00000000E+00
  1.26722955E+00 -3.54392623E+00  0.00000000E+00  1.26722955E+00 -3.54392623E+00
  0.00000000E+00 -1.26722955E+00 -3.54392623E+00  0.00000000E+00 -1.26722955E+00
 -3.54392623E+00  0.00000000E+00 -1.26722955E+00 -3.54392623E+00  0.00000000E+00
 -1.26722955E+00 -3.54392623E+00  0.00000000E+00 -1.26722955E+00 -3.54392623E+00
  0.00000000E+00 -1.26722955E+00  3.54392623E+00  0.00000000E+00 -1.26722955E+00
  3.54392623E+00  0.00000000E+00 -1.26722955E+00  3.54392623E+00  0.00000000E+00
 -1.26722955E+00  3.54392623E+00  0.00000000E+00 -1.26722955E+00  3.54392623E+00
  0.00000000E+00  1.26722955E+00  3.54392623E+00  0.00000000E+00  1.26722955E+00
  3.54392623E+00  0.00000000E+00  1.26722955E+00  3.54392623E+00  0.00000000E+00
  1.26722955E+00  3.54392623E+00  0.00000000E+00  1.26722955E+00  3.54392623E+00
  0.00000000E+00  3.15620168E+00  1.54041592E+00  0.00000000E+00  3.15620168E+00
  1.54041592E+00  0.00000000E+00  3.15620168E+00  1.54041592E+00  0.00000000E+00
  3.15620168E+00  1.54041592E+00  0.00000000E+00  3.15620168E+00  1.54041592E+00
  0.00000000E+00  3.15620168E+00 -1.54041592E+00  0.00000000E+00  3.15620168E+00
 -1.54041592E+00  0.00000000E+00  3.15620168E+00 -1.54041592E+00  0.00000000E+00
  3.15620168E+00 -1.54041592E+00  0.00000000E+00  3.15620168E+00 -1.54041592E+00
  0.00000000E+00 -3.15620168E+00  1.54041592E+00  0.00000000E+00 -3.15620168E+00
  1.54041592E+00  0.00000000E+00 -3.15620168E+00  1.54041592E+00  0.00000000E+00
 -3.15620168E+00  1.54041592E+00  0.00000000E+00 -3.15620168E+00  1.54041592E+00
  0.00000000E+00 -3.15620168E+00 -1.54041592E+00  0.00000000E+00 -3.15620168E+00
 -1.54041592E+00  0.00000000E+00 -3.15620168E+00 -1.54041592E+00  0.00000000E+00
 -3.15620168E+00 -1.54041592E+00  0.00000000E+00 -3.15620168E+00 -1.54041592E+00
  0.00000000E+00
Num ILSW                                   I              100
ILSW                                       I   N=         100
           1           0           0           0           2           0
           0           0           0           0         402          -1
           5           0           0           0           0           0
           0           0           0           0           0           0
           1           1           0           0           0           0
           0           0      100000           0          -1           0
           0           0           0           0           0           0
           0           0           0           1           0           0
           0 -2000000000           1           0           0           0
           0           0           4          52           0           0
           0           0           5           0           0           0
           0           0           0          16           0           1
           0           0           0           0           0           0
           0           0           0           0           0           0
           0           0           0           0           0           0
           0           0           0           0           0           0
           0           0           0           0
Num RLSW                                   I               52
RLSW                                       R   N=          52
  8.00000000E-01  7.20000000E-01  1.00000000E+00  8.10000000E-01  2.00000000E-01
  0.00000000E+00  0.00000000E+00  1.00000000E+00  0.00000000E+00  0.00000000E+00
  0.00000000E+00  0.00000000E+00  1.00000000E+00  0.00000000E+00  0.00000000E+00
  0.00000000E+00  0.00000000E+00  1.00000000E+00  0.00000000E+00  0.00000000E+00
  0.00000000E+00  0.00000000E+00  1.00000000E+00  0.00000000E+00  0.00000000E+00
  0.00000000E+00  0.00000000E+00  1.00000000E+00  0.00000000E+00  0.00000000E+00
  0.00000000E+00  0.00000000E+00  1.00000000E+00  0.00000000E+00  0.00000000E+00
  0.00000000E+00  0.00000000E+00  0.00000000E+00  1.00000000E+00  1.00000000E+00
  0.00000000E+00  1.00000000E+00  0.00000000E+00  0.00000000E+00  0.00000000E+00
  0.00000000E+00  0.00000000E+00  0.00000000E+00  0.00000000E+00  0.00000000E+00
  0.00000000E+00  0.00000000E+00
MxBond                                     I                3
NBond                                      I   N=          16
           1           1           1           1           1           1
           1           1           3           3           3           3
           3           3           3           3
IBond                                      I   N=          48
          12           0           0          11           0           0
          15           0           0          16           0           0
           9           0           0          10           0           0
          14           0           0          13           0           0
           5          10          14           6           9          16
           2          12          15           1          11          13
           8          12          14           7           9          13
           3          11          16           4          10          15
RBond                                      R   N=          48
  1.00000000E+00  0.00000000E+00  0.00000000E+00  1.00000000E+00  0.00000000E+00
  0.00000000E+00  1.00000000E+00  0.00000000E+00  0.00000000E+00  1.00000000E+00
  0.00000000E+00  0.00000000E+00  1.00000000E+00  0.00000000E+00  0.00000000E+00
  1.00000000E+00  0.00000000E+00  0.00000000E+00  1.00000000E+00  0.00000000E+00
  0.00000000E+00  1.00000000E+00  0.00000000E+00  0.00000000E+00  1.00000000E+00
  1.50000000E+00  1.00000000E+00  1.00000000E+00  1.50000000E+00  1.00000000E+00
  1.00000000E+00  1.50000000E+00  1.00000000E+00  1.00000000E+00  1.50000000E+00
  1.00000000E+00  1.00000000E+00  1.00000000E+00  1.00000000E+00  1.00000000E+00
  1.00000000E+00  1.00000000E+00  1.00000000E+00  1.00000000E+00  1.00000000E+00
  1.00000000E+00  1.00000000E+00  1.00000000E+00
Virial Ratio                               R      2.004242879149960E+00
SCF Energy                                 R     -3.233385705840094E+02
Total Energy                               R     -3.233385705840094E+02
S**2                                       R     -3.375077994860476E-13
S**2 after annihilation                    R     -3.616662525018023E-12
RMS Density                                R      9.330792630814064E-09
Job Status                                 I                1
Nuclear derivative order                   I                0
External E-field                           R   N=          35
  0.00000000E+00  0.00000000E+00  0.00000000E+00  0.00000000E+00  0.00000000E+00
  0.00000000E+00  0.00000000E+00  0.00000000E+00  0.00000000E+00  0.00000000E+00
  0.00000000E+00  0.00000000E+00  0.00000000E+00  0.00000000E+00  0.00000000E+00
  0.00000000E+00  0.00000000E+00  0.00000000E+00  0.00000000E+00  0.00000000E+00
  0.00000000E+00  0.00000000E+00  0.00000000E+00  0.00000000E+00  0.00000000E+00
  0.00000000E+00  0.00000000E+00  0.00000000E+00  0.00000000E+00  0.00000000E+00
  0.00000000E+00  0.00000000E+00  0.00000000E+00  0.00000000E+00  0.00000000E+00
IOpCl                                      I                1
IROHF                                      I                0
Alpha Orbital Energies                     R   N=         192
 -1.43583041E+01 -1.43582902E+01 -1.43580948E+01 -1.43580821E+01 -6.71860946E+00
 -6.71857974E+00 -6.71808827E+00 -6.71807725E+00 -1.00789902E+00 -1.00647611E+00
 -7.72430456E-01 -7.69347153E-01 -5.92916092E-01 -5.69716635E-01 -5.67470384E-01
 -5.56187423E-01 -4.99109821E-01 -4.38741835E-01 -4.24006185E-01 -4.06993184E-01
 -4.00679990E-01 -3.98892390E-01 -3.35981894E-01 -3.19304344E-01 -2.99323131E-01
 -2.89000737E-01 -2.42778578E-01 -2.09452900E-01 -8.75794818E-02 -1.58951977E-02
  1.08796440E-02  1.88390951E-02  7.24214258E-02  7.64629535E-02  9.33755536E-02
  1.15893311E-01  1.21529590E-01  1.29202173E-01  1.49454304E-01  1.54967562E-01
  1.58822532E-01  2.15221735E-01  2.18027282E-01  2.29222255E-01  2.62666644E-01
  2.63353255E-01  2.65850059E-01  2.77285785E-01  2.92312990E-01  2.93446834E-01
  2.94951905E-01  3.16719112E-01  3.46967132E-01  3.52671289E-01  3.60929654E-01
  3.65991590E-01  3.73616776E-01  3.74206758E-01  4.26383401E-01  4.31881513E-01
  4.72156131E-01  5.18501374E-01  5.20378805E-01  5.50522971E-01  5.52214375E-01
  5.65855078E-01  5.71194108E-01  6.04961359E-01  6.13392024E-01  6.20518928E-01
  6.34099988E-01  6.36233216E-01  6.53154733E-01  6.64082855E-01  6.79425079E-01
  6.95931783E-01  7.21564727E-01  7.31759740E-01  7.52399505E-01  7.77902366E-01
  8.07969928E-01  8.65446691E-01  8.98958011E-01  9.10211961E-01  9.22168510E-01
  9.25301446E-01  9.31738280E-01  9.32192943E-01  9.70479153E-01  1.00067446E+00
  1.01437084E+00  1.01574658E+00  1.05794410E+00  1.08228980E+00  1.11482648E+00
  1.14346977E+00  1.18281692E+00  1.24663612E+00  1.24794062E+00  1.27269771E+00
  1.29096508E+00  1.29466784E+00  1.29841206E+00  1.33211895E+00  1.36780756E+00
  1.39699943E+00  1.44517404E+00  1.44959111E+00  1.50283561E+00  1.61388880E+00
  1.61693723E+00  1.63052434E+00  1.63228451E+00  1.67926019E+00  1.70620766E+00
  1.70897764E+00  1.74572537E+00  1.75369498E+00  1.75868506E+00  1.76567141E+00
  1.76820922E+00  1.81369490E+00  1.84932067E+00  1.87271616E+00  1.87278849E+00
  1.88504149E+00  1.92400444E+00  1.93393067E+00  1.94214173E+00  1.97417952E+00
  1.98927845E+00  2.00087738E+00  2.02243221E+00  2.03727943E+00  2.03740426E+00
  2.12735120E+00  2.14920257E+00  2.16938543E+00  2.22212658E+00  2.26194249E+00
  2.27292515E+00  2.29247990E+00  2.30575168E+00  2.32638103E+00  2.37589568E+00
  2.42013973E+00  2.47519826E+00  2.49237629E+00  2.52430176E+00  2.52987061E+00
  2.56788532E+00  2.57486734E+00  2.58610306E+00  2.63314507E+00  2.64325920E+00
  2.65180648E+00  2.67256177E+00  2.73345406E+00  2.78196595E+00  2.78938926E+00
  2.79026120E+00  2.80217417E+00  2.85865419E+00  2.91033495E+00  2.94772906E+00
  3.00737736E+00  3.06482174E+00  3.09727227E+00  3.10775003E+00  3.25732857E+00
  3.31044883E+00  3.44967217E+00  3.61072236E+00  3.67217378E+00  3.83695717E+00
  3.89046702E+00  4.04031047E+00  4.13930997E+00  4.45736265E+00  4.61003015E+00
  4.64098010E+00  4.81685408E+00  5.22837596E+00  5.36663874E+00  1.44360089E+01
  1.46195721E+01  1.48852111E+01  1.49444841E+01  3.54089058E+01  3.54936060E+01
  3.55259085E+01  3.56003492E+01
Beta Orbital Energies                      R   N=         192
 -1.43583041E+01 -1.43582902E+01 -1.43580948E+01 -1.43580821E+01 -6.71860946E+00
 -6.71857974E+00 -6.71808827E+00 -6.71807725E+00 -1.00789902E+00 -1.00647611E+00
 -7.72430456E-01 -7.69347153E-01 -5.92916092E-01 -5.69716635E-01 -5.67470384E-01
 -5.56187423E-01 -4.99109821E-01 -4.38741835E-01 -4.24006185E-01 -4.06993184E-01
 -4.00679990E-01 -3.98892390E-01 -3.35981894E-01 -3.19304344E-01 -2.99323131E-01
 -2.89000737E-01 -2.42778578E-01 -2.09452900E-01 -8.75794818E-02 -1.58951977E-02
  1.08796440E-02  1.88390951E-02  7.24214258E-02  7.64629535E-02  9.33755536E-02
  1.15893311E-01  1.21529590E-01  1.29202173E-01  1.49454304E-01  1.54967562E-01
  1.58822532E-01  2.15221735E-01  2.18027282E-01  2.29222255E-01  2.62666644E-01
  2.63353255E-01  2.65850059E-01  2.77285785E-01  2.92312990E-01  2.93446834E-01