Title Card Required                                                     
SP        RB3LYP                                                      6-311G(d,p)         
Number of atoms                            I               16
Info1-9                                    I   N=           9
          23          23           0           0           0         110
           1          18        -502
Full Title                                 C   N=           2
Title Card Required     
Route                                      C   N=           4
#p b3lyp/6-311g(d,p) nosymm density=current     
Charge                                     I                0
Multiplicity                               I                1
Number of electrons                        I               56
Number of alpha electrons                  I               28
Number of beta electrons                   I               28
Number of basis functions                  I              192
Number of independent functions            I              192
Number of point charges in /Mol/           I                0
Number of translation vectors              I                0
Atomic numbers                             I   N=          16
           1           1           1           1           1           1
           1           1           7           7           7           7
           5           5           5           5
Nuclear charges                            R   N=          16
  1.00000000E+00  1.00000000E+00  1.00000000E+00  1.00000000E+00  1.00000000E+00
  1.00000000E+00  1.00000000E+00  1.00000000E+00  7.00000000E+00  7.00000000E+00
  7.00000000E+00  7.00000000E+00  5.00000000E+00  5.00000000E+00  5.00000000E+00
  5.00000000E+00
Current cartesian coordinates              R   N=          48
 -2.73588690E+00  3.97054702E+00  1.99444530E+00 -7.54760394E-01  4.76256337E+00
 -1.99426955E+00  3.50823498E+00  3.14521292E+00 -2.56149542E+00  4.70961513E+00
  1.39665878E-01  2.56146896E+00  7.54760394E-01 -4.76256337E+00 -1.99426955E+00
  2.73588690E+00 -3.97054702E+00  1.99444530E+00 -3.50823498E+00 -3.14521292E+00
 -2.56149542E+00 -4.70961513E+00 -1.39665878E-01  2.56146896E+00  1.99659014E-01
 -3.37338979E+00 -8.03902721E-01  2.18065324E+00 -2.58156242E+00  8.03919729E-01
 -1.99659014E-01  3.37338979E+00 -8.03902721E-01 -2.18065324E+00  2.58156242E+00
  8.03919729E-01 -3.12906521E+00  1.25145223E-01  9.59279783E-01 -2.18065324E+00
 -2.24751553E+00 -9.59332695E-01  2.18065324E+00  2.24751553E+00 -9.59332695E-01
  3.12906521E+00 -1.25145223E-01  9.59279783E-01
Number of symbols in /Mol/                 I                0
Force Field                                I                0
Atom Types                                 C   N=          16
                                                            
                                                            
                                                            
            
Int Atom Types                             I   N=          16
           0           0           0           0           0           0
           0           0           0           0           0           0
           0           0           0           0
MM charges                                 R   N=          16
  0.00000000E+00  0.00000000E+00  0.00000000E+00  0.00000000E+00  0.00000000E+00
  0.00000000E+00  0.00000000E+00  0.00000000E+00  0.00000000E+00  0.00000000E+00
  0.00000000E+00  0.00000000E+00  0.00000000E+00  0.00000000E+00  0.00000000E+00
  0.00000000E+00
Integer atomic weights                     I   N=          16
           1           1           1           1           1           1
           1           1          14          14          14          14
          11          11          11          11
Real atomic weights                        R   N=          16
  1.00782504E+00  1.00782504E+00  1.00782504E+00  1.00782504E+00  1.00782504E+00
  1.00782504E+00  1.00782504E+00  1.00782504E+00  1.40030740E+01  1.40030740E+01
  1.40030740E+01  1.40030740E+01  1.10093053E+01  1.10093053E+01  1.10093053E+01
  1.10093053E+01
Atom fragment info                         I   N=          16
           0           0           0           0           0           0
           0           0           0           0           0           0
           0           0           0           0
Atom residue num                           I   N=          16
           0           0           0           0           0           0
           0           0           0           0           0           0
           0           0           0           0
Nuclear spins                              I   N=          16
           1           1           1           1           1           1
           1           1           2           2           2           2
           3           3           3           3
Nuclear ZEff                               R   N=          16
 -1.00000000E+00 -1.00000000E+00 -1.00000000E+00 -1.00000000E+00 -1.00000000E+00
 -1.00000000E+00 -1.00000000E+00 -1.00000000E+00 -4.55000000E+00 -4.55000000E+00
 -4.55000000E+00 -4.55000000E+00 -2.75000000E+00 -2.75000000E+00 -2.75000000E+00
 -2.75000000E+00
Nuclear ZNuc                               R   N=          16
  1.00000000E+00  1.00000000E+00  1.00000000E+00  1.00000000E+00  1.00000000E+00
  1.00000000E+00  1.00000000E+00  1.00000000E+00  7.00000000E+00  7.00000000E+00
  7.00000000E+00  7.00000000E+00  5.00000000E+00  5.00000000E+00  5.00000000E+00
  5.00000000E+00
Nuclear QMom                               R   N=          16
  0.00000000E+00  0.00000000E+00  0.00000000E+00  0.00000000E+00  0.00000000E+00
  0.00000000E+00  0.00000000E+00  0.00000000E+00  2.04400000E+00  2.04400000E+00
  2.04400000E+00  2.04400000E+00  4.05900000E+00  4.05900000E+00  4.05900000E+00
  4.05900000E+00
Nuclear GFac                               R   N=          16
  2.79284600E+00  2.79284600E+00  2.79284600E+00  2.79284600E+00  2.79284600E+00
  2.79284600E+00  2.79284600E+00  2.79284600E+00  4.03761000E-01  4.03761000E-01
  4.03761000E-01  4.03761000E-01  2.68863700E+00  2.68863700E+00  2.68863700E+00
  2.68863700E+00
MicOpt                                     I   N=          16
          -1          -1          -1          -1          -1          -1
          -1          -1          -1          -1          -1          -1
          -1          -1          -1          -1
Number of residues                         I                0
Number of secondary structures             I                0
Number of contracted shells                I               72
Number of primitive shells                 I              144
Pure/Cartesian d shells                    I                0
Pure/Cartesian f shells                    I                0
Highest angular momentum                   I                2
Largest degree of contraction              I                6
Shell types                                I   N=          72
           0           0           0           1           0           0
           0           1           0           0           0           1
           0           0           0           1           0           0
           0           1           0           0           0           1
           0           0           0           1           0           0
           0           1           0          -1          -1          -1
          -2           0          -1          -1          -1          -2
           0          -1          -1          -1          -2           0
          -1          -1          -1          -2           0          -1
          -1          -1          -2           0          -1          -1
          -1          -2           0          -1          -1          -1
          -2           0          -1          -1          -1          -2
Number of primitives per shell             I   N=          72
           3           1           1           1           3           1
           1           1           3           1           1           1
           3           1           1           1           3           1
           1           1           3           1           1           1
           3           1           1           1           3           1
           1           1           6           3           1           1
           1           6           3           1           1           1
           6           3           1           1           1           6
           3           1           1           1           6           3
           1           1           1           6           3           1
           1           1           6           3           1           1
           1           6           3           1           1           1
Shell to atom map                          I   N=          72
           1           1           1           1           2           2
           2           2           3           3           3           3
           4           4           4           4           5           5
           5           5           6           6           6           6
           7           7           7           7           8           8
           8           8           9           9           9           9
           9          10          10          10          10          10
          11          11          11          11          11          12
          12          12          12          12          13          13
          13          13          13          14          14          14
          14          14          15          15          15          15
          15          16          16          16          16          16
Primitive exponents                        R   N=         144
  3.38650000E+01  5.09479000E+00  1.15879000E+00  3.25840000E-01  1.02741000E-01
  7.50000000E-01  3.38650000E+01  5.09479000E+00  1.15879000E+00  3.25840000E-01
  1.02741000E-01  7.50000000E-01  3.38650000E+01  5.09479000E+00  1.15879000E+00
  3.25840000E-01  1.02741000E-01  7.50000000E-01  3.38650000E+01  5.09479000E+00
  1.15879000E+00  3.25840000E-01  1.02741000E-01  7.50000000E-01  3.38650000E+01
  5.09479000E+00  1.15879000E+00  3.25840000E-01  1.02741000E-01  7.50000000E-01
  3.38650000E+01  5.09479000E+00  1.15879000E+00  3.25840000E-01  1.02741000E-01
  7.50000000E-01  3.38650000E+01  5.09479000E+00  1.15879000E+00  3.25840000E-01
  1.02741000E-01  7.50000000E-01  3.38650000E+01  5.09479000E+00  1.15879000E+00
  3.25840000E-01  1.02741000E-01  7.50000000E-01  6.29348000E+03  9.49044000E+02
  2.18776000E+02  6.36916000E+01  1.88282000E+01  2.72023000E+00  3.06331000E+01
  7.02614000E+00  2.11205000E+00  6.84009000E-01  2.00878000E-01  9.13000000E-01
  6.29348000E+03  9.49044000E+02  2.18776000E+02  6.36916000E+01  1.88282000E+01
  2.72023000E+00  3.06331000E+01  7.02614000E+00  2.11205000E+00  6.84009000E-01
  2.00878000E-01  9.13000000E-01  6.29348000E+03  9.49044000E+02  2.18776000E+02
  6.36916000E+01  1.88282000E+01  2.72023000E+00  3.06331000E+01  7.02614000E+00
  2.11205000E+00  6.84009000E-01  2.00878000E-01  9.13000000E-01  6.29348000E+03
  9.49044000E+02  2.18776000E+02  6.36916000E+01  1.88282000E+01  2.72023000E+00
  3.06331000E+01  7.02614000E+00  2.11205000E+00  6.84009000E-01  2.00878000E-01
  9.13000000E-01  2.85889000E+03  4.28140000E+02  9.75282000E+01  2.79693000E+01
  8.21577000E+00  1.11278000E+00  1.32415000E+01  3.00166000E+00  9.12856000E-01
  3.15454000E-01  9.88563000E-02  4.01000000E-01  2.85889000E+03  4.28140000E+02
  9.75282000E+01  2.79693000E+01  8.21577000E+00  1.11278000E+00  1.32415000E+01
  3.00166000E+00  9.12856000E-01  3.15454000E-01  9.88563000E-02  4.01000000E-01
  2.85889000E+03  4.28140000E+02  9.75282000E+01  2.79693000E+01  8.21577000E+00
  1.11278000E+00  1.32415000E+01  3.00166000E+00  9.12856000E-01  3.15454000E-01
  9.88563000E-02  4.01000000E-01  2.85889000E+03  4.28140000E+02  9.75282000E+01
  2.79693000E+01  8.21577000E+00  1.11278000E+00  1.32415000E+01  3.00166000E+00
  9.12856000E-01  3.15454000E-01  9.88563000E-02  4.01000000E-01
Contraction coefficients                   R   N=         144
  2.54938145E-02  1.90373109E-01  8.52161486E-01  1.00000000E+00  1.00000000E+00
  1.00000000E+00  2.54938145E-02  1.90373109E-01  8.52161486E-01  1.00000000E+00
  1.00000000E+00  1.00000000E+00  2.54938145E-02  1.90373109E-01  8.52161486E-01
  1.00000000E+00  1.00000000E+00  1.00000000E+00  2.54938145E-02  1.90373109E-01
  8.52161486E-01  1.00000000E+00  1.00000000E+00  1.00000000E+00  2.54938145E-02
  1.90373109E-01  8.52161486E-01  1.00000000E+00  1.00000000E+00  1.00000000E+00
  2.54938145E-02  1.90373109E-01  8.52161486E-01  1.00000000E+00  1.00000000E+00
  1.00000000E+00  2.54938145E-02  1.90373109E-01  8.52161486E-01  1.00000000E+00
  1.00000000E+00  1.00000000E+00  2.54938145E-02  1.90373109E-01  8.52161486E-01
  1.00000000E+00  1.00000000E+00  1.00000000E+00  1.96978815E-03  1.49612859E-02
  7.35005308E-02  2.48936766E-01  6.02459433E-01  2.56201759E-01  1.11906080E-01
  9.21666655E-01 -2.56919183E-03  1.00000000E+00  1.00000000E+00  1.00000000E+00
  1.96978815E-03  1.49612859E-02  7.35005308E-02  2.48936766E-01  6.02459433E-01
  2.56201759E-01  1.11906080E-01  9.21666655E-01 -2.56919183E-03  1.00000000E+00
  1.00000000E+00  1.00000000E+00  1.96978815E-03  1.49612859E-02  7.35005308E-02
  2.48936766E-01  6.02459433E-01  2.56201759E-01  1.11906080E-01  9.21666655E-01
 -2.56919183E-03  1.00000000E+00  1.00000000E+00  1.00000000E+00  1.96978815E-03
  1.49612859E-02  7.35005308E-02  2.48936766E-01  6.02459433E-01  2.56201759E-01
  1.11906080E-01  9.21666655E-01 -2.56919183E-03  1.00000000E+00  1.00000000E+00
  1.00000000E+00  2.15374907E-03  1.65822928E-02  8.21869644E-02  2.76617880E-01
  6.29315727E-01  1.73769925E-01  1.17442942E-01  9.18001549E-01 -2.65104870E-03
  1.00000000E+00  1.00000000E+00  1.00000000E+00  2.15374907E-03  1.65822928E-02
  8.21869644E-02  2.76617880E-01  6.29315727E-01  1.73769925E-01  1.17442942E-01
  9.18001549E-01 -2.65104870E-03  1.00000000E+00  1.00000000E+00  1.00000000E+00
  2.15374907E-03  1.65822928E-02  8.21869644E-02  2.76617880E-01  6.29315727E-01
  1.73769925E-01  1.17442942E-01  9.18001549E-01 -2.65104870E-03  1.00000000E+00
  1.00000000E+00  1.00000000E+00  2.15374907E-03  1.65822928E-02  8.21869644E-02
  2.76617880E-01  6.29315727E-01  1.73769925E-01  1.17442942E-01  9.18001549E-01
 -2.65104870E-03  1.00000000E+00  1.00000000E+00  1.00000000E+00
P(S=P) Contraction coefficients            R   N=         144
  0.00000000E+00  0.00000000E+00  0.00000000E+00  0.00000000E+00  0.00000000E+00
  0.00000000E+00  0.00000000E+00  0.00000000E+00  0.00000000E+00  0.00000000E+00
  0.00000000E+00  0.00000000E+00  0.00000000E+00  0.00000000E+00  0.00000000E+00
  0.00000000E+00  0.00000000E+00  0.00000000E+00  0.00000000E+00  0.00000000E+00
  0.00000000E+00  0.00000000E+00  0.00000000E+00  0.00000000E+00  0.00000000E+00
  0.00000000E+00  0.00000000E+00  0.00000000E+00  0.00000000E+00  0.00000000E+00
  0.00000000E+00  0.00000000E+00  0.00000000E+00  0.00000000E+00  0.00000000E+00
  0.00000000E+00  0.00000000E+00  0.00000000E+00  0.00000000E+00  0.00000000E+00
  0.00000000E+00  0.00000000E+00  0.00000000E+00  0.00000000E+00  0.00000000E+00
  0.00000000E+00  0.00000000E+00  0.00000000E+00  0.00000000E+00  0.00000000E+00
  0.00000000E+00  0.00000000E+00  0.00000000E+00  0.00000000E+00  3.83119186E-02
  2.37403116E-01  8.17592398E-01  1.00000000E+00  1.00000000E+00  0.00000000E+00
  0.00000000E+00  0.00000000E+00  0.00000000E+00  0.00000000E+00  0.00000000E+00
  0.00000000E+00  3.83119186E-02  2.37403116E-01  8.17592398E-01  1.00000000E+00
  1.00000000E+00  0.00000000E+00  0.00000000E+00  0.00000000E+00  0.00000000E+00
  0.00000000E+00  0.00000000E+00  0.00000000E+00  3.83119186E-02  2.37403116E-01
  8.17592398E-01  1.00000000E+00  1.00000000E+00  0.00000000E+00  0.00000000E+00
  0.00000000E+00  0.00000000E+00  0.00000000E+00  0.00000000E+00  0.00000000E+00
  3.83119186E-02  2.37403116E-01  8.17592398E-01  1.00000000E+00  1.00000000E+00
  0.00000000E+00  0.00000000E+00  0.00000000E+00  0.00000000E+00  0.00000000E+00
  0.00000000E+00  0.00000000E+00  4.18099989E-02  2.36574994E-01  8.16213978E-01
  1.00000000E+00  1.00000000E+00  0.00000000E+00  0.00000000E+00  0.00000000E+00
  0.00000000E+00  0.00000000E+00  0.00000000E+00  0.00000000E+00  4.18099989E-02
  2.36574994E-01  8.16213978E-01  1.00000000E+00  1.00000000E+00  0.00000000E+00
  0.00000000E+00  0.00000000E+00  0.00000000E+00  0.00000000E+00  0.00000000E+00
  0.00000000E+00  4.18099989E-02  2.36574994E-01  8.16213978E-01  1.00000000E+00
  1.00000000E+00  0.00000000E+00  0.00000000E+00  0.00000000E+00  0.00000000E+00
  0.00000000E+00  0.00000000E+00  0.00000000E+00  4.18099989E-02  2.36574994E-01
  8.16213978E-01  1.00000000E+00  1.00000000E+00  0.00000000E+00
Coordinates of each shell                  R   N=         216
 -2.73588690E+00  3.97054702E+00  1.99444530E+00 -2.73588690E+00  3.97054702E+00
  1.99444530E+00 -2.73588690E+00  3.97054702E+00  1.99444530E+00 -2.73588690E+00
  3.97054702E+00  1.99444530E+00 -7.54760394E-01  4.76256337E+00 -1.99426955E+00
 -7.54760394E-01  4.76256337E+00 -1.99426955E+00 -7.54760394E-01  4.76256337E+00
 -1.99426955E+00 -7.54760394E-01  4.76256337E+00 -1.99426955E+00  3.50823498E+00
  3.14521292E+00 -2.56149542E+00  3.50823498E+00  3.14521292E+00 -2.56149542E+00
  3.50823498E+00  3.14521292E+00 -2.56149542E+00  3.50823498E+00  3.14521292E+00
 -2.56149542E+00  4.70961513E+00  1.39665878E-01  2.56146896E+00  4.70961513E+00
  1.39665878E-01  2.56146896E+00  4.70961513E+00  1.39665878E-01  2.56146896E+00
  4.70961513E+00  1.39665878E-01  2.56146896E+00  7.54760394E-01 -4.76256337E+00
 -1.99426955E+00  7.54760394E-01 -4.76256337E+00 -1.99426955E+00  7.54760394E-01
 -4.76256337E+00 -1.99426955E+00  7.54760394E-01 -4.76256337E+00 -1.99426955E+00
  2.73588690E+00 -3.97054702E+00  1.99444530E+00  2.73588690E+00 -3.97054702E+00
  1.99444530E+00  2.73588690E+00 -3.97054702E+00  1.99444530E+00  2.73588690E+00
 -3.97054702E+00  1.99444530E+00 -3.50823498E+00 -3.14521292E+00 -2.56149542E+00
 -3.50823498E+00 -3.14521292E+00 -2.56149542E+00 -3.50823498E+00 -3.14521292E+00
 -2.56149542E+00 -3.50823498E+00 -3.14521292E+00 -2.56149542E+00 -4.70961513E+00
 -1.39665878E-01  2.56146896E+00 -4.70961513E+00 -1.39665878E-01  2.56146896E+00
 -4.70961513E+00 -1.39665878E-01  2.56146896E+00 -4.70961513E+00 -1.39665878E-01
  2.56146896E+00  1.99659014E-01 -3.37338979E+00 -8.03902721E-01  1.99659014E-01
 -3.37338979E+00 -8.03902721E-01  1.99659014E-01 -3.37338979E+00 -8.03902721E-01
  1.99659014E-01 -3.37338979E+00 -8.03902721E-01  1.99659014E-01 -3.37338979E+00
 -8.03902721E-01  2.18065324E+00 -2.58156242E+00  8.03919729E-01  2.18065324E+00
 -2.58156242E+00  8.03919729E-01  2.18065324E+00 -2.58156242E+00  8.03919729E-01
  2.18065324E+00 -2.58156242E+00  8.03919729E-01  2.18065324E+00 -2.58156242E+00
  8.03919729E-01 -1.99659014E-01  3.37338979E+00 -8.03902721E-01 -1.99659014E-01
  3.37338979E+00 -8.03902721E-01 -1.99659014E-01  3.37338979E+00 -8.03902721E-01
 -1.99659014E-01  3.37338979E+00 -8.03902721E-01 -1.99659014E-01  3.37338979E+00
 -8.03902721E-01 -2.18065324E+00  2.58156242E+00  8.03919729E-01 -2.18065324E+00
  2.58156242E+00  8.03919729E-01 -2.18065324E+00  2.58156242E+00  8.03919729E-01
 -2.18065324E+00  2.58156242E+00  8.03919729E-01 -2.18065324E+00  2.58156242E+00
  8.03919729E-01 -3.12906521E+00  1.25145223E-01  9.59279783E-01 -3.12906521E+00
  1.25145223E-01  9.59279783E-01 -3.12906521E+00  1.25145223E-01  9.59279783E-01
 -3.12906521E+00  1.25145223E-01  9.59279783E-01 -3.12906521E+00  1.25145223E-01
  9.59279783E-01 -2.18065324E+00 -2.24751553E+00 -9.59332695E-01 -2.18065324E+00
 -2.24751553E+00 -9.59332695E-01 -2.18065324E+00 -2.24751553E+00 -9.59332695E-01
 -2.18065324E+00 -2.24751553E+00 -9.59332695E-01 -2.18065324E+00 -2.24751553E+00
 -9.59332695E-01  2.18065324E+00  2.24751553E+00 -9.59332695E-01  2.18065324E+00
  2.24751553E+00 -9.59332695E-01  2.18065324E+00  2.24751553E+00 -9.59332695E-01
  2.18065324E+00  2.24751553E+00 -9.59332695E-01  2.18065324E+00  2.24751553E+00
 -9.59332695E-01  3.12906521E+00 -1.25145223E-01  9.59279783E-01  3.12906521E+00
 -1.25145223E-01  9.59279783E-01  3.12906521E+00 -1.25145223E-01  9.59279783E-01
  3.12906521E+00 -1.25145223E-01  9.59279783E-01  3.12906521E+00 -1.25145223E-01
  9.59279783E-01
Num ILSW                                   I              100
ILSW                                       I   N=         100
           0           0           0           0           2           0
           0           0           0           0         402          -1
           5           0           0           0           0           0
           0           0           0           0           0           0
           1           1           0           0           0           0
           0           0      100000           0          -1           0
           0           0           0           0           0           0
           0           0           0           1           0           0
           0 -2000000000           1           0           0           0
           0           0           4          52           0           0
           0           0           5           0           0           0
           0           0           0          16           0           1
           0           0           0           0           0           0
           0           0           0           0           0           0
           0           0           0           0           0           0
           0           0           0           0           0           0
           0           0           0           0
Num RLSW                                   I               52
RLSW                                       R   N=          52
  8.00000000E-01  7.20000000E-01  1.00000000E+00  8.10000000E-01  2.00000000E-01
  0.00000000E+00  0.00000000E+00  1.00000000E+00  0.00000000E+00  0.00000000E+00
  0.00000000E+00  0.00000000E+00  1.00000000E+00  0.00000000E+00  0.00000000E+00
  0.00000000E+00  0.00000000E+00  1.00000000E+00  0.00000000E+00  0.00000000E+00
  0.00000000E+00  0.00000000E+00  1.00000000E+00  0.00000000E+00  0.00000000E+00
  0.00000000E+00  0.00000000E+00  1.00000000E+00  0.00000000E+00  0.00000000E+00
  0.00000000E+00  0.00000000E+00  1.00000000E+00  0.00000000E+00  0.00000000E+00
  0.00000000E+00  0.00000000E+00  0.00000000E+00  1.00000000E+00  1.00000000E+00
  0.00000000E+00  1.00000000E+00  0.00000000E+00  0.00000000E+00  0.00000000E+00
  0.00000000E+00  0.00000000E+00  0.00000000E+00  0.00000000E+00  0.00000000E+00
  0.00000000E+00  0.00000000E+00
MxBond                                     I                3
NBond                                      I   N=          16
           1           1           1           1           1           1
           1           1           3           3           3           3
           3           3           3           3
IBond                                      I   N=          48
          12           0           0          11           0           0
          15           0           0          16           0           0
           9           0           0          10           0           0
          14           0           0          13           0           0
           5          10          14           6           9          16
           2          12          15           1          11          13
           8          12          14           7           9          13
           3          11          16           4          10          15
RBond                                      R   N=          48
  1.00000000E+00  0.00000000E+00  0.00000000E+00  1.00000000E+00  0.00000000E+00
  0.00000000E+00  1.00000000E+00  0.00000000E+00  0.00000000E+00  1.00000000E+00
  0.00000000E+00  0.00000000E+00  1.00000000E+00  0.00000000E+00  0.00000000E+00
  1.00000000E+00  0.00000000E+00  0.00000000E+00  1.00000000E+00  0.00000000E+00
  0.00000000E+00  1.00000000E+00  0.00000000E+00  0.00000000E+00  1.00000000E+00
  1.00000000E+00  1.00000000E+00  1.00000000E+00  1.00000000E+00  1.00000000E+00
  1.00000000E+00  1.00000000E+00  1.00000000E+00  1.00000000E+00  1.00000000E+00
  1.00000000E+00  1.00000000E+00  1.00000000E+00  1.00000000E+00  1.00000000E+00
  1.00000000E+00  1.00000000E+00  1.00000000E+00  1.00000000E+00  1.00000000E+00
  1.00000000E+00  1.00000000E+00  1.00000000E+00
Virial Ratio                               R      2.004154109080159E+00
SCF Energy                                 R     -3.233843342735186E+02
Total Energy                               R     -3.233843342735186E+02
RMS Density                                R      3.149193620696171E-09
Job Status                                 I                1
Nuclear derivative order                   I                0
External E-field                           R   N=          35
  0.00000000E+00  0.00000000E+00  0.00000000E+00  0.00000000E+00  0.00000000E+00
  0.00000000E+00  0.00000000E+00  0.00000000E+00  0.00000000E+00  0.00000000E+00
  0.00000000E+00  0.00000000E+00  0.00000000E+00  0.00000000E+00  0.00000000E+00
  0.00000000E+00  0.00000000E+00  0.00000000E+00  0.00000000E+00  0.00000000E+00
  0.00000000E+00  0.00000000E+00  0.00000000E+00  0.00000000E+00  0.00000000E+00
  0.00000000E+00  0.00000000E+00  0.00000000E+00  0.00000000E+00  0.00000000E+00
  0.00000000E+00  0.00000000E+00  0.00000000E+00  0.00000000E+00  0.00000000E+00
IOpCl                                      I                0
IROHF                                      I                0
Alpha Orbital Energies                     R   N=         192
 -1.43467416E+01 -1.43467392E+01 -1.43465995E+01 -1.43465967E+01 -6.71182285E+00
 -6.71180717E+00 -6.71144737E+00 -6.71144098E+00 -9.78017114E-01 -9.73678376E-01
 -7.78305518E-01 -7.75510687E-01 -5.84149971E-01 -5.42381185E-01 -5.37450843E-01
 -5.35428380E-01 -5.32523951E-01 -5.00474360E-01 -4.07617654E-01 -4.01720335E-01
 -3.83751273E-01 -3.46117099E-01 -3.24053586E-01 -3.22440154E-01 -2.83119066E-01
 -2.82500681E-01 -2.62711266E-01 -2.60662601E-01 -2.21313812E-02 -6.96213748E-03
  2.15191641E-02  2.97854124E-02  5.13702995E-02  5.67854940E-02  7.20990854E-02
  7.85214246E-02  1.17693934E-01  1.18374034E-01  1.35615229E-01  1.40657521E-01
  1.61406542E-01  1.97533479E-01  2.00565089E-01  2.26393399E-01  2.34870857E-01
  2.62857557E-01  2.62963689E-01  2.76858896E-01  2.96257201E-01  3.03340248E-01
  3.08784754E-01  3.14502042E-01  3.44663895E-01  3.56996445E-01  3.60608709E-01
  3.66974175E-01  3.81877229E-01  3.83595381E-01  4.23316222E-01  4.36189238E-01
  4.72912762E-01  4.94125818E-01  4.96262885E-01  5.25274627E-01  5.37255952E-01
  5.40525631E-01  5.65011206E-01  5.68745689E-01  5.89564555E-01  5.92107277E-01
  5.97680330E-01  6.24178670E-01  6.35986789E-01  6.79445609E-01  7.19962169E-01
  7.41794367E-01  7.42134287E-01  7.62796919E-01  7.65419726E-01  7.78945663E-01
  7.96868800E-01  8.41256853E-01  8.80371754E-01  8.91052041E-01  9.07139287E-01
  9.35516505E-01  9.45381307E-01  9.57623388E-01  9.88886600E-01  9.92264901E-01
  1.01123265E+00  1.05799082E+00  1.06302350E+00  1.09032568E+00  1.15552910E+00
  1.15666249E+00  1.18109941E+00  1.18507928E+00  1.21173292E+00  1.21784608E+00
  1.23844894E+00  1.29630667E+00  1.38626788E+00  1.40669538E+00  1.41987795E+00
  1.46346400E+00  1.48109188E+00  1.49103129E+00  1.55145705E+00  1.56806363E+00
  1.58466579E+00  1.59302104E+00  1.64958410E+00  1.68362859E+00  1.70175603E+00
  1.72238024E+00  1.73324363E+00  1.74614917E+00  1.77682498E+00  1.78148114E+00
  1.79053496E+00  1.82633757E+00  1.84027250E+00  1.84633577E+00  1.86557353E+00
  1.87300190E+00  1.89024383E+00  1.90359914E+00  1.97112565E+00  1.98153190E+00
  2.00427256E+00  2.02749323E+00  2.03819802E+00  2.07893365E+00  2.09725766E+00
  2.14246550E+00  2.15633000E+00  2.18651590E+00  2.25472902E+00  2.27333620E+00
  2.30108209E+00  2.32592726E+00  2.35114130E+00  2.36246796E+00  2.41919008E+00
  2.45051425E+00  2.45258066E+00  2.46847634E+00  2.52779887E+00  2.54055156E+00
  2.55051618E+00  2.59724947E+00  2.62659750E+00  2.65207966E+00  2.67123023E+00
  2.67444166E+00  2.68346352E+00  2.69335543E+00  2.75142031E+00  2.75564068E+00
  2.76956663E+00  2.77264988E+00  2.80515135E+00  2.83961950E+00  2.89075067E+00
  2.93263898E+00  2.93674994E+00  2.98162131E+00  3.10609722E+00  3.13817133E+00
  3.19889892E+00  3.28090166E+00  3.75088936E+00  3.82332443E+00  3.82705014E+00
  3.83702949E+00  4.03080076E+00  4.04882653E+00  4.61151484E+00  4.63532420E+00
  4.67173842E+00  4.68706737E+00  5.12575782E+00  5.17209451E+00  1.46176151E+01
  1.46980628E+01  1.47390088E+01  1.47658782E+01  3.54886053E+01  3.55125736E+01
  3.55127897E+01  3.55249391E+01
Alpha MO coefficients                      R   N=       36864
 -8.64260370E-05 -1.52881482E-03  1.03722825E-04 -2.79824775E-04  7.49817479E-04
  6.38654932E-04 -8.64895959E-05 -1.52738386E-03  1.03290446E-04 -3.13671156E-04
  7.35624582E-04 -6.38098095E-04 -1.40101133E-04 -5.39144458E-04  1.61009310E-03
  2.30087849E-04  5.96678051E-05 -2.21558161E-04 -1.40175535E-04 -5.39429513E-04
  1.61134837E-03  2.07964301E-04  1.15403036E-04  2.21672189E-04 -8.64895963E-05
 -1.52738386E-03  1.03290447E-04  3.13671157E-04 -7.35624585E-04 -6.38098098E-04
 -8.64260374E-05 -1.52881482E-03  1.03722826E-04  2.79824776E-04 -7.49817482E-04
  6.38654934E-04 -1.40101133E-04 -5.39144461E-04  1.61009311E-03 -2.30087850E-04
 -5.96678056E-05 -2.21558162E-04 -1.40175535E-04 -5.39429510E-04  1.61134836E-03
 -2.07964299E-04 -1.15403036E-04  2.21672188E-04  2.78565344E-01  2.32767306E-01
  5.53503402E-04 -3.59807305E-05  2.14129956E-04  7.91827282E-03 -5.25229113E-04
 -5.09139237E-05 -4.24515467E-04 -2.96481622E-03  6.67213951E-04 -1.19808724E-03